CASRN	Chemical	Formula	Tb	HvapTb	Hvap298
100-41-4	Ethylbenzene	C8H10	409.31	35570	42240
100-42-5	Styrene	C8H8	418.15	38700	
100-46-9	Benzylamine	C7H9N	458.15		60160
100-47-0	Benzonitrile	C7H5N	464.25	45900	
100-51-6	Benzyl alcohol	C7H8O	478.46	50480	
100-52-7	Benzaldehyde	C7H6O	451.95	42500	
100-66-3	Anisole	C7H8O	426.85	38970	46900
10022-50-1	Nitryl fluoride	FNO2	200.75	18050	
10024-97-2	Nitrous oxide	N2O	184.67	16530	
10025-78-2	Trichlorosilane	Cl3HSi	306.15		25700
10025-87-3	Phosphoryl chloride	Cl3OP	378.65	34350	38600
10025-91-9	Antimony(III) chloride	Cl3Sb	493.45	45190	
10026-04-7	Tetrachlorosilane	Cl4Si	330.8	28700	29700
10026-07-0	Tellurium tetrachloride	Cl4Te	660.15	77000	
10026-08-1	Thorium(IV) chloride	Cl4Th	1194.15	146400	
10026-12-7	Niobium(V) chloride	Cl5Nb	520.55	52700	
10031-22-8	Lead(II) bromide	Br2Pb	1165.15	133000	
10031-24-0	Tin(II) bromide	Br2Sn	912.15	102000	
10034-85-2	Hydrogen iodide	HI	237.6	19760	17360
10035-10-6	Hydrogen bromide	BrH	206.77		12690
10036-47-2	Tetrafluorohydrazine	F4N2	199.15	13270	
10038-98-9	Germanium(IV) chloride	Cl4Ge	359.7	27900	
10049-04-4	Chlorine dioxide	ClO2	284.15	30000	
10049-05-5	Chromium(II) chloride	Cl2Cr	1393.15	197000	
10049-06-6	Titanium(II) chloride	Cl2Ti	1773.15	232000	
10049-17-9	Rhenium(VI) fluoride	F6Re	306.95	28700	
101-84-8	Diphenyl ether	C12H10O	531.15	48200	
10101-63-0	Lead(II) iodide	I2Pb	1145.15	104000	
10102-43-9	Nitric oxide	NO	121.41	13830	
10108-64-2	Cadmium chloride	CdCl2	1237.15	124300	
102-76-1	Glycerol triacetate	C9H14O6	532.15		85740
102-82-9	Tributylamine	C12H27N	489.65	46900	
10241-05-1	Molybdenum(V) chloride	Cl5Mo	541.15	62800	
10294-33-4	Boron tribromide	BBr3	364.45	30500	
10294-34-5	Boron trichloride	BCl3	285.65	23770	23100
10294-70-9	Tin(II) iodide	I2Sn	987.15	105000	
103-09-3	2-Ethylhexyl acetate	C10H20O2	472.15	43500	
103-32-2	N-Benzylaniline	C13H13N	579.65		79600
103-65-1	Propylbenzene	C9H12	432.39		46220
103-69-5	N-Ethylaniline	C8H11N	476.15		58300
103-73-1	Ethoxybenzene	C8H10O	442.96		51040
104-51-8	Butylbenzene	C10H14	456.46	38870	50800
104-72-3	Decylbenzene	C16H26	566.15		78200
104-75-6	2-Ethylhexylamine	C8H19N	442.35	40000	
104-76-7	2-Ethyl-1-hexanol	C8H18O	457.75	54200	68510
105-30-6	2-Methyl-1-pentanol	C6H14O	422.15	50200	
105-34-0	Methyl cyanoacetate	C4H5NO2	473.65	48200	
105-37-3	Ethyl propanoate	C5H10O2	372.25	33880	39210
105-39-5	Ethyl chloroacetate	C4H7ClO2	417.45	40430	49470
105-53-3	Diethyl malonate	C7H12O4	473.15	54800	
105-54-4	Ethyl butanoate	C6H12O2	394.45	35470	42680
105-57-7	1,1-Diethoxyethane	C6H14O2	375.4	36280	43200
105-58-8	Diethyl carbonate	C5H10O3	399.15		43600
105-67-9	2,4-Xylenol	C8H10O	484.13		64960
10544-72-6	Nitrogen tetroxide	N2O4	294.3	38120	
106-31-0	Butanoic anhydride	C8H14O3	473.15	50000	
106-36-5	Propyl propanoate	C6H12O2	395.65	35540	43450
106-42-3	p-Xylene	C8H10	411.38	35670	42400
106-43-4	4-Chlorotoluene	C7H7Cl	435.55	38700	
106-44-5	p-Cresol	C7H8O	475.13	47450	
106-46-7	p-Dichlorobenzene	C6H4Cl2	447.15	38790	49000
106-49-0	4-Methylaniline	C7H9N	473.55	44300	
106-65-0	Dimethyl succinate	C6H10O4	469.55		61000
106-70-7	Methyl hexanoate	C7H14O2	422.65	38550	48040
106-73-0	Methyl heptanoate	C8H16O2	447.15		51620
106-79-6	Dimethyl sebacate	C12H22O4			86400
106-88-7	1,2-Epoxybutane	C4H8O	336.55	30300	
106-93-4	1,2-Dibromoethane	C2H4Br2	404.75	34770	41730
106-94-5	1-Bromopropane	C3H7Br	344.25	29840	32010
106-95-6	3-Bromopropene	C3H5Br	343.25	30240	32730
106-97-8	Butane	C4H10	272.65	22440	21020
106-98-9	1-Butene	C4H8	266.89	22070	20220
106-99-0	1,3-Butadiene	C4H6	268.74	22470	20860
1067-08-9	3-Ethyl-3-methylpentane	C8H18	391.42	32780	37990
1067-20-5	3,3-Diethylpentane	C9H20	419.45	34610	42000
1069-53-0	2,3,5-Trimethylhexane	C9H20	404.55	34430	41410
107-00-6	1-Butyne	C4H6	281.23	24520	23350
107-02-8	Acrolein	C3H4O	325.75	28300	
107-03-9	1-Propanethiol	C3H8S	340.95	29540	31890
107-05-1	3-Chloropropene	C3H5Cl	318.25	29000	
107-06-2	1,2-Dichloroethane	C2H4Cl2	356.65	31980	35160
107-07-3	2-Chloroethanol	C2H5ClO	401.75	41400	
107-08-4	1-Iodopropane	C3H7I	375.65	32080	36250
107-10-8	Propylamine	C3H9N	320.37	29550	31270
107-12-0	Propanenitrile	C3H5N	370.29	31810	36030
107-13-1	Acrylonitrile	C3H3N	350.45	32600	
107-15-3	1,2-Ethanediamine	C2H8N2	390.15	37980	44980
107-18-6	Allyl alcohol	C3H6O	370.55	40000	
107-21-1	1,2-Ethanediol	C2H6O2	470.45	50500	63900
107-31-3	Methyl formate	C2H4O2	304.85	27920	28350
107-39-1	2,4,4-Trimethyl-1-pentene	C8H16	374.55		35590
107-40-4	2,4,4-Trimethyl-2-pentene	C8H16	378.05		37230
107-41-5	2-Methyl-2,4-pentanediol	C6H14O2	470.25	57300	
107-47-1	Di-tert-butyl sulfide	C8H18S	422.25	33260	43760
107-83-5	2-Methylpentane	C6H14	333.41	27790	29890
107-84-6	1-Chloro-3-methylbutane	C5H11Cl	372.05	32020	36240
107-87-9	2-Pentanone	C5H10O	375.41	33440	38400
107-88-0	1,3-Butanediol	C4H10O2	480.65	54310	74460
107-92-6	Butanoic acid	C4H8O2	436.9		40450
1070-87-7	2,2,4,4-Tetramethylpentane	C9H20	395.44	32510	38490
1077-16-3	Hexylbenzene	C12H18	499.25		60400
1078-71-3	Heptylbenzene	C13H20	513.15		64200
108-03-2	1-Nitropropane	C3H7NO2	404.25	38500	
108-05-4	Vinyl acetate	C4H6O2	345.95	34600	
108-08-7	2,4-Dimethylpentane	C7H16	353.64	29550	32880
108-10-1	4-Methyl-2-pentanone	C6H12O	389.65	34490	40610
108-11-2	4-Methyl-2-pentanol	C6H14O	404.75	44200	
108-18-9	Diisopropylamine	C6H15N	357.05	30400	34610
108-20-3	Diisopropyl ether	C6H14O	341.55	29100	32120
108-21-4	Isopropyl acetate	C5H10O2	361.85	32930	37200
108-24-7	Acetic anhydride	C4H6O3	412.65	38200	
108-38-3	m-Xylene	C8H10	412.22	35660	42650
108-39-4	m-Cresol	C7H8O	475.42	47400	61710
108-44-1	3-Methylaniline	C7H9N	476.45	44900	
108-47-4	2,4-Dimethylpyridine	C7H9N	431.53	38530	47490
108-48-5	2,6-Dimethylpyridine	C7H9N	417.16	37460	45340
108-59-8	Dimethyl malonate	C5H8O4	454.55		57500
108-64-5	Ethyl 3-methylbutanoate	C7H14O2	408.15	37000	
108-67-8	1,3,5-Trimethylbenzene	C9H12	437.89		47500
108-68-9	3,5-Xylenol	C8H10O	494.89		82010
108-75-8	2,4,6-Trimethylpyridine	C8H11N	443.75	39870	50330
108-82-7	2,6-Dimethyl-4-heptanol	C9H20O	447.65		65170
108-83-8	2,6-Dimethyl-4-heptanone	C9H18O	442.55		50920
108-86-1	Bromobenzene	C6H5Br	429.21		44540
108-87-2	Methylcyclohexane	C7H14	374.08	31270	35360
108-88-3	Toluene	C7H8	383.78	33180	38010
108-89-4	4-Methylpyridine	C6H7N	418.51	37510	44560
108-90-7	Chlorobenzene	C6H5Cl	404.87	35190	40970
108-91-8	Cyclohexylamine	C6H13N	407.15	36140	43670
108-93-0	Cyclohexanol	C6H12O	433.99		62010
108-94-1	Cyclohexanone	C6H10O	428.58		45060
108-95-2	Phenol	C6H6O	455.02	45690	57820
108-98-5	Benzenethiol	C6H6S	442.25	39930	47560
108-99-6	3-Methylpyridine	C6H7N	417.29	37350	44440
1081-77-2	Nonylbenzene	C15H24	553.65		74100
109-06-8	2-Methylpyridine	C6H7N	402.53	36170	42480
109-52-4	Pentanoic acid	C5H10O2	459.25	44100	
109-60-4	Propyl acetate	C5H10O2	374.45	33920	39720
109-64-8	1,3-Dibromopropane	C3H6Br2	440.45		47450
109-65-9	1-Bromobutane	C4H9Br	374.75	32510	36640
109-66-0	Pentane	C5H12	309.21	25790	26430
109-67-1	1-Pentene	C5H10	303.11	25200	25470
109-69-3	1-Chlorobutane	C4H9Cl	351.55	30390	33510
109-73-9	Butylamine	C4H11N	350.15	31810	35720
109-74-0	Butanenitrile	C4H7N	390.75	33680	39330
109-76-2	1,3-Propanediamine	C3H10N2	412.95	40850	50160
109-79-5	1-Butanethiol	C4H10S	371.65	32230	36630
109-80-8	1,3-Propanedithiol	C3H8S2	446.05		49660
109-86-4	2-Methoxyethanol	C3H8O2	397.25	37540	45170
109-89-7	Diethylamine	C4H11N	328.65	29060	31310
109-92-2	Ethyl vinyl ether	C4H8O	308.65	26200	
109-94-4	Ethyl formate	C3H6O2	327.55	29910	31960
109-97-7	Pyrrole	C4H5N	402.94	38750	45090
109-99-9	Tetrahydrofuran	C4H8O	338.15	29810	31990
110-00-9	Furan	C4H4O	304.65	27100	27450
110-01-0	Tetrahydrothiophene	C4H8S	394.25	34660	39430
110-02-1	Thiophene	C4H4S	357.15	31480	34700
110-03-2	2,5-Dimethyl-2,5-hexanediol	C8H18O2	487.15		85200
110-19-0	Isobutyl acetate	C6H12O2	389.65	35900	
110-43-0	2-Heptanone	C7H14O	424.2		47240
110-49-6	2-Methoxyethyl acetate	C5H10O3	416.15	43900	
110-52-1	1,4-Dibromobutane	C4H8Br2	470.15		53090
110-53-2	1-Bromopentane	C5H11Br	402.95	35010	41280
110-54-3	Hexane	C6H14	341.88	28850	31560
110-56-5	1,4-Dichlorobutane	C4H8Cl2	434.15		46360
110-58-7	Pentylamine	C5H13N	377.45	34010	40080
110-59-8	Pentanenitrile	C5H9N	414.45	36090	43600
110-61-2	Succinonitrile	C4H4N2	539.15	48500	
110-63-4	1,4-Butanediol	C4H10O2	508.15		77100
110-65-6	2-Butyne-1,4-diol	C4H6O2	511.15		81500
110-66-7	1-Pentanethiol	C5H12S	399.75	34880	41240
110-71-4	1,2-Dimethoxyethane	C4H10O2	357.65	32420	36390
110-74-7	Propyl formate	C4H8O2	354.05	33610	37530
110-80-5	2-Ethoxyethanol	C4H10O2	408.15	39220	48210
110-81-6	Diethyl disulfide	C4H10S2	427.15	37580	45180
110-82-7	Cyclohexane	C6H12	353.88	29970	33010
110-83-8	Cyclohexene	C6H10	356.13	30460	33470
110-86-1	Pyridine	C5H5N	388.38	35090	40210
110-89-4	Piperidine	C5H11N	379.37		39290
110-91-8	Morpholine	C4H9NO	401.15	37100	
111-11-5	Methyl octanoate	C9H18O2	466.05		56410
111-15-9	2-Ethoxyethyl acetate	C6H12O3	429.55	40760	52610
111-25-1	1-Bromohexane	C6H13Br	428.45		45890
111-26-2	Hexylamine	C6H15N	405.95	36540	45100
111-27-3	1-Hexanol	C6H14O	430.75	44500	61610
111-29-5	1,5-Pentanediol	C5H12O2	512.15	60700	83000
111-34-2	Butyl vinyl ether	C6H12O	367.15	31580	36170
111-42-2	Diethanolamine	C4H11NO2	541.95	65200	
111-43-3	Dipropyl ether	C6H14O	363.23	31310	35690
111-44-4	Bis(2-chloroethyl) ether	C4H8Cl2O	451.65	45200	
111-46-6	Diethylene glycol	C4H10O3	518.95	52300	
111-47-7	Dipropyl sulfide	C6H14S	416.05	36600	44210
111-55-7	1,2-Ethanediol, diacetate	C6H10O4	463.15		61440
111-65-9	Octane	C8H18	398.82	34410	41490
111-66-0	1-Octene	C8H16	394.44	34070	40340
111-68-2	Heptylamine	C7H17N	429.15		49960
111-70-6	1-Heptanol	C7H16O	449.6		66810
111-76-2	2-Butoxyethanol	C6H14O2	441.55		56590
111-77-3	Diethylene glycol monomethyl ether	C5H12O3	466.15	46600	
111-82-0	Methyl dodecanoate	C13H26O2	540.15		77170
111-83-1	1-Bromooctane	C8H17Br	473.95		55770
111-84-2	Nonane	C9H20	423.97	37180	46550
111-85-3	1-Chlorooctane	C8H17Cl	456.65		52420
111-87-5	1-Octanol	C8H18O	468.31		70980
111-90-0	Diethylene glycol monoethyl ether	C6H14O3	469.15	47500	
111-92-2	Dibutylamine	C8H19N	432.75	38440	49450
111-96-6	Diethylene glycol dimethyl ether	C6H14O3	435.15	36170	44690
1119-40-0	Dimethyl glutarate	C7H12O4	487.15		65700
112-27-6	Triethylene glycol	C6H14O4	558.15	71400	
112-30-1	1-Decanol	C10H22O	504.25		81500
112-36-7	Diethylene glycol diethyl ether	C8H18O3	461.15		58400
112-40-3	Dodecane	C12H26	489.47	44090	61520
112-41-4	1-Dodecene	C12H24	486.95		60780
112-42-5	1-Undecanol	C11H24O	518.15		85800
112-47-0	1,10-Decanediol	C10H22O2			120000
112-53-8	1-Dodecanol	C12H26O	533.15		90800
112-70-9	1-Tridecanol	C13H28O	547.15		94700
112-72-1	1-Tetradecanol	C14H30O	560.15		98900
112-80-1	cis-9-Octadecenoic acid	C18H34O2	633.15	67400	
112-92-5	1-Octadecanol	C18H38O	608.15		116800
112-95-8	Eicosane	C20H42	616.15	58490	101810
1120-21-4	Undecane	C11H24	469.05	41910	56580
1120-59-8	2,3-Dihydrothiophene	C4H6S	385.25	33240	37740
1121-37-5	Dicyclopropyl ketone	C7H10O	434.15		53700
112283-13-3	6-Heptadecanol	C17H36O			108600
115-07-1	Propene	C3H6	225.46	18420	14240
115-10-6	Dimethyl ether	C2H6O	248.35	21510	18510
115-25-3	Perfluorocyclobutane	C4F8	267.24	23200	
116-54-1	Methyl dichloroacetate	C3H4Cl2O2	416.05	39280	47720
116783-23-4	sec-Butyl methyl ether	C5H12O	332.25	28090	30230
119-36-8	Methyl salicylate	C8H8O3	496.05	46700	
119-64-2	1,2,3,4-Tetrahydronaphthalene	C10H12	480.75	43900	
119-65-3	Isoquinoline	C9H7N	516.37	49000	60260
1191-08-8	1,4-Butanedithiol	C4H10S2	468.65		55100
120-51-4	Benzyl benzoate	C14H12O2	596.65	53600	
120-92-3	Cyclopentanone	C5H8O	403.72	36350	42720
121-44-8	Triethylamine	C6H15N	362.15	31010	34840
121-69-7	N,N-Dimethylaniline	C8H11N	467.3		52830
123-01-3	Dodecylbenzene	C18H30	601.15		86600
123-02-4	Tridecylbenzene	C19H32	619.15		91800
123-38-6	Propanal	C3H6O	321.15	28310	29620
123-39-7	N-Methylformamide	C2H5NO	472.66		56190
123-51-3	3-Methyl-1-butanol	C5H12O	404.25	44070	55610
123-54-6	2,4-Pentanedione	C5H8O2	411.15	34300	41770
123-62-6	Propanoic anhydride	C6H10O3	443.15	41700	
123-66-0	Ethyl hexanoate	C8H16O2	440.15		51720
123-72-8	Butanal	C4H8O	347.95	31500	
123-75-1	Pyrrolidine	C4H9N	359.71	33010	37520
123-86-4	Butyl acetate	C6H12O2	399.25	36280	43860
123-91-1	1,4-Dioxane	C4H8O2	374.65	34160	38600
123-92-2	Isopentyl acetate	C7H14O2	415.65	37500	
124-07-2	Octanoic acid	C8H16O2	512.15	58500	
124-12-9	Octanenitrile	C8H15N	478.4		56800
124-18-5	Decane	C10H22	447.3	39580	51420
124-40-3	Dimethylamine	C2H7N	280.03	26400	25050
124-68-5	2-Amino-2-methyl-1-propanol	C4H11NO	438.65	50600	
124-73-2	1,2-Dibromotetrafluoroethane	C2Br2F4	320.5	27030	28390
126-98-7	2-Methylacrylonitrile	C4H5N	363.45	31800	
127-18-4	Tetrachloroethene	C2Cl4	394.45	34680	39680
127-19-5	N,N-Dimethylacetamide	C4H9NO	438.15		50240
1310-65-2	Lithium hydroxide	HLiO	1899.15	188000	
1310-73-2	Sodium hydroxide	HNaO	1661.15	175000	
1313-27-5	Molybdenum(VI) oxide	MoO3	1428.15	138000	
1314-97-2	Thallium(I) sulfide	STl2	1640.15	154000	
13269-52-8	trans-3-Hexene	C6H12	340.25		31550
13283-01-7	Tungsten(VI) chloride	Cl6W	610.15	52700	
1333-74-0	Hydrogen	H2	20.39	900	
13360-63-9	Butylethylamine	C6H15N	380.65	33970	40150
13362-52-2	1,13-Tridecanediol	C13H28O2			133000
13444-90-1	Nitryl chloride	ClNO2	258.15	25700	
13445-50-6	Diphosphine	H4P2	336.65	28800	
13450-88-9	Gallium(III) bromide	Br3Ga	552.15	38900	
13450-90-3	Gallium(III) chloride	Cl3Ga	474.15	23900	
13450-91-4	Gallium(III) iodide	GaI3	613.15	56500	
13450-92-5	Germanium(IV) bromide	Br4Ge	459.5	41400	
13451-11-1	Tantalum(V) bromide	Br5Ta	621.95	62300	
13455-01-1	Phosphorus(III) iodide	I3P	500.15	43900	
13465-07-1	Hydrogen disulfide	H2S2	343.85		33780
13465-66-2	Selenium tetrafluoride	F4Se	374.75	47200	
13465-71-9	Trifluorosilane	F3HSi	178.15	16200	
13465-73-1	Bromosilane	BrH3Si	275.05	24400	
13465-78-6	Chlorosilane	ClH3Si	242.75	21000	
13465-84-4	Tetraiodosilane	I4Si	560.5	50200	
13475-82-6	2,2,4,6,6-Pentamethylheptane	C12H26	450.95		48970
13494-80-9	Tellurium	Te	1261.15	114100	
13517-10-7	Boron triiodide	BI3	482.65	40500	
13520-78-0	Tungsten(VI) oxytetrachloride	Cl4OW	503.15	67800	
13520-79-1	Tungsten(VI) oxytetrafluoride	F4OW	459.05	59500	
13537-33-2	Fluorosilane	FH3Si	174.55	18800	
13709-59-6	Thorium(IV) fluoride	F4Th	1953.15	258000	
13768-38-2	Osmium(VI) fluoride	F6Os	320.65	28100	
13768-94-0	Dibromosilane	Br2H2Si	339.15	31000	
13818-89-8	Digermane	Ge2H6	302.15	25100	
13819-84-6	Molybdenum(V) fluoride	F5Mo	486.75	51800	
13824-36-7	Difluorosilane	F2H2Si	195.35	16300	
13863-59-7	Bromine fluoride	BrF	293.15	25100	
13965-73-6	Tetrafluorodiborane	B2F4	239.15	28000	
13966-94-4	Indium(I) iodide	IIn	985.15	90800	
140-11-4	Benzyl acetate	C9H10O2	486.15	49400	
140-88-5	Ethyl acrylate	C5H8O2	372.55	34700	
14049-36-6	Chlorotrifluorosilane	ClF3Si	203.15	18700	
141-43-5	Ethanolamine	C2H7NO	444.15	49830	
141-78-6	Ethyl acetate	C4H8O2	350.26	31940	35600
141-79-7	Mesityl oxide	C6H10O	403.15	36100	
142-28-9	1,3-Dichloropropane	C3H6Cl2	394.05	35180	40750
142-30-3	2,5-Dimethyl-3-hexyne-2,5-diol	C8H14O2	478.15		82800
142-68-7	Tetrahydropyran	C5H10O	361.15	31170	34580
142-82-5	Heptane	C7H16	371.55	31770	36570
142-84-7	Dipropylamine	C6H15N	382.45	33470	40040
142-96-1	Dibutyl ether	C8H18O	413.43	36490	44970
14280-53-6	Indium(I) bromide	BrIn	929.15	92000	
143-08-8	1-Nonanol	C9H20O	486.52		76860
143-10-2	1-Decanethiol	C10H22S	513.75		65480
14335-40-1	Phosphorus(III) chloride difluoride	ClF2P	225.85	17600	
14459-59-7	Molybdenum(VI) oxytetrafluoride	F4MoO	459.15	50600	
1454-85-9	1-Heptadecanol	C17H36O	597.15		112500
1459-09-2	Hexadecylbenzene	C22H38	658.15		104800
1459-10-5	Tetradecylbenzene	C20H34	632.15		95800
1462-84-6	2,3,6-Trimethylpyridine	C8H11N	444.75	39950	50610
14686-13-6	trans-2-Heptene	C7H14	371.15		36270
14686-14-7	trans-3-Heptene	C7H14	368.85		35840
14691-44-2	Trigermane	Ge3H8	383.65	32200	
14722-40-8	1,15-Pentadecanediol	C15H32O2			139000
149-57-5	2-Ethylhexanoic acid	C8H16O2	501.15		75600
14977-61-8	Chromium(VI) dichloride dioxide	Cl2CrO2	390.15	35100	
151-67-7	2-Bromo-2-chloro-1,1,1-trifluoroethane	C2HBrClF3	323.35	28080	29610
1522-22-1	Hexafluoroacetylacetone	C5H2F6O2	327.3	27050	30580
15232-76-5	3-Octyne	C8H14	406.25	36940	43920
1551-21-9	Isopropyl methyl sulfide	C4H10S	357.95	30710	34150
15597-63-4	Phosphorus(III) dichloride fluoride	Cl2FP	287	24900	
156-59-2	cis-1,2-Dichloroethene	C2H2Cl2	333.25	30200	
156-60-5	trans-1,2-Dichloroethene	C2H2Cl2	321.85	28900	
1569-69-3	Cyclohexanethiol	C6H12S	431.95	37060	44570
157-40-4	Spiro[2.2]pentane	C5H8	312.15	26760	27490
15869-85-9	5-Methylnonane	C10H22	438.25	38140	49340
1590-87-0	Disilane	H6Si2	258.35	21200	
16033-71-9	Methyloxirane	C3H6O	308.15	27350	27890
1613-51-0	Thiacyclohexane	C5H10S	414.95	35960	42580
1634-04-4	Methyl tert-butyl ether	C5H12O	328.15	27940	29820
1639-01-6	2,3-Dimethyl-2-butanethiol	C6H14S	399.25		39300
1640-89-7	Ethylcyclopentane	C7H14	376.65	31960	36400
16529-66-1	trans-3-Pentenenitrile	C5H7N	417.15	37090	44770
1674-33-5	1,2-Dichloropentane	C5H10Cl2	421.45	36450	43890
16747-50-5	1-Ethyl-1-methylcyclopentane	C8H16	394.75	33200	38850
1678-91-7	Ethylcyclohexane	C8H16	405.05	34040	40560
1678-92-8	Propylcyclohexane	C9H18	429.15		45080
1678-93-9	Butylcyclohexane	C10H20	453.15		49360
1679-07-8	Cyclopentanethiol	C5H10S	405.25	35320	41420
1679-08-9	2,2-Dimethyl-1-propanethiol	C5H12S	376.85		36400
1679-09-0	2-Methyl-2-butanethiol	C5H12S	372.25	31370	35670
16962-07-5	Aluminum borohydride	AlB3H12	317.65	30000	
17026-29-8	Rhenium(VI) oxytetrafluoride	F4ORe	444.85	61000	
1708-32-3	2,5-Dihydrothiophene	C4H6S	395.55	34830	39950
1717-00-6	1,1-Dichloro-1-fluoroethane	C2H3Cl2F	305.15	26060	26480
1732-08-7	Dimethyl heptanedioate	C9H16O4			73500
1732-09-8	Dimethyl octanedioate	C10H18O4	541.15		78100
1732-10-1	Dimethyl nonanedioate	C11H20O4			82300
1741-83-9	Methyl pentyl sulfide	C6H14S	418.25	37410	45240
17952-11-3	Ethyl pentyl ether	C7H16O	390.75	34410	41010
18283-93-7	Tetraborane(10)	B4H10	291.15	27100	
18356-71-3	Dichlorodifluorosilane	Cl2F2Si	241.15	21200	
18433-84-6	Pentaborane(11)	B5H11	338.15	31800	
1855-63-6	1-Cyclohexenecarbonitrile	C7H9N			53550
18854-56-3	1,2-Dipropoxyethane	C8H18O2	436.35		50620
19287-45-7	Diborane	B2H6	180.66	14280	
1942-45-6	4-Octyne	C8H14	404.75	36000	42730
1975-78-6	Decanenitrile	C10H19N	516.15		66840
19780-66-6	3-Ethyl-2-methyl-1-pentene	C8H16	382.65		37270
19812-64-7	1,14-Tetradecanediol	C14H30O2			149700
19961-27-4	Ethylisopropylamine	C5H13N	342.75	29940	33130
20089-07-0	2-Methyl-1-butanethiol, (+)	C5H12S	392.25	33790	39450
20281-86-1	2-Hexanol	C6H14O	413.15	41010	58460
2040-95-1	Butylcyclopentane	C9H18	429.75	36160	45890
2040-96-2	Propylcyclopentane	C8H16	404.15	34700	41080
2084-18-6	3-Methyl-2-butanethiol	C5H12S	382.95		37500
2131-18-2	Pentadecylbenzene	C21H36	646.15		100300
2159-75-3	Azobutane	C8H18N2			49310
2162-92-7	1,2-Dichlorohexane	C6H12Cl2	446.15		48160
2189-60-8	Octylbenzene	C14H22	537.15		69100
21968-17-2	Isopropylpropylamine	C6H15N	370.05	32140	37230
2207-01-4	cis-1,2-Dimethylcyclohexane	C8H16	402.95	33470	39700
2207-03-6	trans-1,3-Dimethylcyclohexane	C8H16	397.65	33390	39160
2207-04-7	trans-1,4-Dimethylcyclohexane	C8H16	392.55	32560	37900
2213-32-3	2,4-Dimethyl-1-pentene	C7H14	354.75		33030
2244-07-7	Undecanenitrile	C11H21N	526.15		71140
2404-52-6	Phosphorothioc trifluoride	F3PS	220.9	19600	
2406-52-2	Stannane	H4Sn	221.35	19050	
2437-25-4	Dodecanenitrile	C12H23N	550.15		76120
2532-58-3	cis-1,3-Dimethylcyclopentane	C7H14	363.95	30400	34200
2551-62-4	Sulfur hexafluoride	F6S			8990
26171-83-5	1,2-Butanediol, (±)-	C4H10O2	463.65	52840	71550
26549-25-7	3-Heptanol, (S)-	C7H16O	430.15	42500	
2696-92-6	Nitrosyl chloride	ClNO	267.65	25780	
2807-30-9	2-Propoxyethanol	C5H12O2	422.95	41400	52120
2809-67-8	2-Octyne	C8H14	410.75	37260	44490
2847-72-5	4-Methyldecane	C11H24	460.15	40700	53760
2868-37-3	Methyl cyclopropanecarboxylate	C5H8O2	388.05	35250	41270
287-23-0	Cyclobutane	C4H8	285.75	24190	23510
287-27-4	Thietane	C3H6S	368.15	32320	35970
287-92-3	Cyclopentane	C5H10	322.45	27300	28520
289-80-5	Pyridazine	C4H4N2	481.15		53470