CASRN	Chemical	Formula	Tb	HvapTb	Hvap298
289-95-2	Pyrimidine	C4H4N2	396.95	43090	49790
29882-57-3	2-Chloropentane, (+)	C5H11Cl	370.15	31790	36030
302-01-2	Hydrazine	H4N2	386.7	41800	44700
3047-38-9	1-Cyclopentenecarbonitrile	C6H7N			44980
306-94-5	Perfluorodecalin	C10F18	415.17		41540
307-34-6	Perfluorooctane	C8F18	379.05	33380	41130
3073-92-5	Butyl propyl ether	C7H16O	391.25	33720	40220
30937-52-1	Rhenium(V) fluoride	F5Re	494.45	58100	
311-89-7	Tris(perfluorobutyl)amine	C12F27N	451.15	46400	
31576-40-6	Osmium(V) fluoride	F5Os	506.15	65600	
33021-02-2	tert-Butyl isobutyl ether	C8H18O	385.15	33110	40500
33966-50-6	sec-Butylamine	C4H11N	335.88	29920	32850
344-07-0	Chloropentafluorobenzene	C6ClF5	391.11	34760	41070
3452-97-9	3,5,5-Trimethyl-1-hexanol	C9H20O	467.15		67860
34713-94-5	2-Methyl-1-butanol, (±)-	C5H12O	400.65		55160
352-32-9	4-Fluorotoluene	C7H7F	389.75	34080	39420
352-93-2	Diethyl sulfide	C4H10S	365.25	31770	35800
3522-94-9	2,2,5-Trimethylhexane	C9H20	397.24	33650	40160
354-51-8	1,2-Dibromo-1-chloro-1,2,2-trifluoroethane	C2Br2ClF3	366.15	31170	35040
354-58-5	1,1,1-Trichloro-2,2,2-trifluoroethane	C2Cl3F3	318.65	26850	28080
355-25-9	Perfluorobutane	C4F10	271.25	22900	
355-42-0	Perfluorohexane	C6F14	330.29		32470
363-72-4	Pentafluorobenzene	C6HF5	358.89	32150	36270
36383-15-0	sec-Butylbenzene, (±)-	C10H14	446.45		48100
36653-82-4	1-Hexadecanol	C16H34O	585.15		107700
367-11-3	o-Difluorobenzene	C6H4F2	367.15	32210	36180
372-18-9	m-Difluorobenzene	C6H4F2	355.75	31100	34590
375-96-2	Perfluorononane	C9F20	390.76		45270
3875-51-2	Isopropylcyclopentane	C8H16	399.65	33560	39440
3877-15-4	Methyl propyl sulfide	C4H10S	368.75	32080	36240
3899-36-3	trans-3-Methyl-3-hexene	C7H14	366.65		35700
392-56-3	Hexafluorobenzene	C6F6	353.47	31660	35710
3937-56-2	1,9-Nonanediol	C9H20O2			112500
3938-95-2	Ethyl 2,2-dimethylpropanoate	C7H14O2	391.55	34510	41250
4032-94-4	2,4-Dimethyloctane	C10H22	429.15	36470	47130
4050-45-7	trans-2-Hexene	C6H12	341.05		31600
4109-96-0	Dichlorosilane	Cl2H2Si	281.45	25000	24200
4110-50-3	Ethyl propyl sulfide	C5H12S	391.75	34240	39970
4128-31-8	2-Octanol	C8H18O	452.45	44400	
420-46-2	1,1,1-Trifluoroethane	C2H3F3	225.9	18990	
4254-02-8	Cyclopentanecarbonitrile	C6H9N	443.15		43430
4292-92-6	Pentylcyclohexane	C11H22	476.85		53880
434-64-0	Perfluorotoluene	C7F8	376.7		40520
4426-11-3	Cyclobutanecarbonitrile	C5H7N	422.75	36880	44340
460-19-5	Cyanogen	C2N2	252.05	23330	19750
462-06-6	Fluorobenzene	C6H5F	357.88	31190	34580
462-95-3	Diethoxymethane	C5H12O2	361.15	31330	35650
4625-24-5	1-Methylbicyclo[3.1.0]hexane	C7H12	366.25	31070	34770
463-11-6	1-Fluorooctane	C8H17F	415.45	40430	49650
463-82-1	Neopentane	C5H12	282.63	22740	21840
464-06-2	2,2,3-Trimethylbutane	C7H16	354.01	28900	32050
464-49-3	Camphor, (+)	C10H16O	480.55	59500	
4747-07-3	Hexyl methyl ether	C7H16O	399.25	34930	42070
4747-21-1	Isopropylmethylamine	C4H11N	323.55	28710	30690
4806-61-5	Ethylcyclobutane	C6H12	343.95	28670	31240
491-35-0	4-Methylquinoline	C10H9N	535.15		67600
4914-89-0	cis-3-Methyl-3-hexene	C7H14	368.55		36310
493-01-6	cis-Decahydronaphthalene	C10H18	468.95	41000	
493-02-7	trans-Decahydronaphthalene	C10H18	460.45	40200	
496-11-7	Indan	C9H10	451.12	39630	48790
5008-73-1	Isopropyl propyl sulfide	C6H14S	405.25	35110	41780
502-56-7	5-Nonanone	C9H18O	461.6		53300
503-30-0	Oxetane	C3H6O	320.75	28670	29850
504-63-2	1,3-Propanediol	C3H8O2	487.55	57900	69800
505-22-6	1,3-Dioxane	C4H8O2	379.25	34370	39090
506-52-5	1-Hexacosanol	C26H54O			153700
507-19-7	2-Bromo-2-methylpropane	C4H9Br	346.45	29230	31810
507-20-0	2-Chloro-2-methylpropane	C4H9Cl	324.05	27550	28980
509-14-8	Tetranitromethane	CN4O8	399.25	40740	49930
513-35-9	2-Methyl-2-butene	C5H10	311.71	26310	27060
513-36-0	1-Chloro-2-methylpropane	C4H9Cl	341.65	29220	31670
513-38-2	1-Iodo-2-methylpropane	C4H9I	394.25	33540	38830
513-44-0	2-Methyl-1-propanethiol	C4H10S	361.65	31010	34630
5137-45-1	1-Ethoxy-2-methoxyethane	C5H12O2	376.65	34330	39830
5145-99-3	Ethyl isopropyl sulfide	C5H12S	380.65	32740	37780
515-84-4	Ethyl trichloroacetate	C4H5Cl3O2	440.65		50970
52152-71-3	2-Iodobutane, (±)-	C4H9I	393.25	33270	38460
526-73-8	1,2,3-Trimethylbenzene	C9H12	449.27		49050
53178-20-4	2-Chlorobutane	C4H9Cl	341.35	29170	31530
535-15-9	Ethyl dichloroacetate	C4H6Cl2O2	428.15		50600
538-68-1	Pentylbenzene	C11H16	478.55		55100
538-93-2	Isobutylbenzene	C10H14	445.94		48000
539-82-2	Ethyl pentanoate	C7H14O2	419.25	36960	47010
540-36-3	p-Difluorobenzene	C6H4F2	362.15	31770	35540
540-54-5	1-Chloropropane	C3H7Cl	319.65	27180	28350
540-63-6	1,2-Ethanedithiol	C2H6S2	419.25	37930	44680
540-84-1	2,2,4-Trimethylpentane	C8H18	372.37	30790	35140
540-88-5	tert-Butyl acetate	C6H12O2	368.25	33070	38030
541-73-1	m-Dichlorobenzene	C6H4Cl2	446.15	38620	48580
542-55-2	Isobutyl formate	C5H10O2	371.35	33600	
542-69-8	1-Iodobutane	C4H9I	403.65	34660	40630
543-59-9	1-Chloropentane	C5H11Cl	381.55	33150	38240
544-01-4	Diisopentyl ether	C10H22O	445.65	35100	
544-10-5	1-Chlorohexane	C6H13Cl	408.25	35670	42830
544-40-1	Dibutyl sulfide	C8H18S	458.15		52960
544-76-3	Hexadecane	C16H34	560.01	51840	81350
547-63-7	Methyl isobutanoate	C5H10O2	365.65	32610	37320
5500-21-0	Cyclopropanecarbonitrile	C4H5N	408.25	35550	41940
55156-16-6	3-Methyl-2-pentanone, (±)-	C6H12O	390.65	34160	40530
553-90-2	Dimethyl oxalate	C4H6O4	436.65		54700
554-12-1	Methyl propanoate	C4H8O2	352.95	32240	35850
554-14-3	2-Methylthiophene	C5H6S	385.75	33900	38870
557-17-5	Methyl propyl ether	C4H10O	312.25	26750	27600
558-17-8	2-Iodo-2-methylpropane	C4H9I	373.25	31430	35410
558-37-2	3,3-Dimethyl-1-butene	C6H12	314.35		26610
56-23-5	Tetrachloromethane	CCl4	349.95	29820	32430
56-81-5	Glycerol	C3H8O3	563.15	61000	
560-21-4	2,3,3-Trimethylpentane	C8H18	387.95	32120	37270
562-49-2	3,3-Dimethylpentane	C7H16	359.21	29620	33030
563-16-6	3,3-Dimethylhexane	C8H18	385.12	32310	37530
563-45-1	3-Methyl-1-butene	C5H10	293.25		23770
563-46-2	2-Methyl-1-butene	C5H10	304.35	25500	25920
563-78-0	2,3-Dimethyl-1-butene	C6H12	328.75		29180
563-79-1	2,3-Dimethyl-2-butene	C6H12	346.45	29640	32510
563-80-4	3-Methyl-2-butanone	C5H10O	367.48	32350	36780
564-02-3	2,2,3-Trimethylpentane	C8H18	383.15	31940	36910
564-04-5	2,2-Dimethyl-3-pentanone	C7H14O	398.75	36090	42340
5648-29-3	Bis(ethoxymethyl) ether	C6H14O3	413.75	36170	44690
565-59-3	2,3-Dimethylpentane	C7H16	362.93	30460	34260
565-69-5	2-Methyl-3-pentanone	C6H12O	386.65	33840	39790
565-75-3	2,3,4-Trimethylpentane	C8H18	386.65	32360	37750
565-80-0	2,4-Dimethyl-3-pentanone	C7H14O	398.55	34640	41510
5675-51-4	1,12-Dodecanediol	C12H26O2			135000
57-14-7	1,1-Dimethylhydrazine	C2H8N2	337.05	32550	35000
57-55-6	1,2-Propanediol	C3H8O2	460.75	52400	
57-57-8	2-Oxetanone	C3H4O2	435.15		47030
57-88-5	Cholesterol	C27H46O			148000
57246-89-6	Rhenium(VII) dioxytrifluoride	F3O2Re	458.55	65700	
576-26-1	2,6-Xylenol	C8H10O	474.22		75310
5787-31-5	2-Bromobutane, (±)-	C4H9Br	364.45	30770	34410
583-48-2	3,4-Dimethylhexane	C8H18	390.88	33240	38970
583-58-4	3,4-Dimethylpyridine	C7H9N	452.25	39990	50500
583-61-9	2,3-Dimethylpyridine	C7H9N	434.27	39080	47820
584-02-1	3-Pentanol	C5H12O	389.4		54000
584-94-1	2,3-Dimethylhexane	C8H18	388.77	33170	38780
5857-36-3	2,2,4-Trimethyl-3-pentanone	C8H16O	408.25	35640	43300
589-38-8	3-Hexanone	C6H12O	396.65	35360	42470
589-43-5	2,4-Dimethylhexane	C8H18	382.65	32510	37760
589-53-7	4-Methylheptane	C8H18	390.87	33350	39690
589-81-1	3-Methylheptane	C8H18	392.05	33660	39830
589-93-5	2,5-Dimethylpyridine	C7H9N	430.13	38680	47040
590-18-1	cis-2-Butene	C4H8	276.86	23340	22160
590-19-2	1,2-Butadiene	C4H6	284.05	24020	23210
590-35-2	2,2-Dimethylpentane	C7H16	352.35	29230	32420
590-36-3	2-Methyl-2-pentanol	C6H14O	394.25	39590	54770
590-66-9	1,1-Dimethylcyclohexane	C8H16	392.75	32510	37920
590-67-0	1-Methylcyclohexanol	C7H14O	428.15	79000	
590-73-8	2,2-Dimethylhexane	C8H18	380.01	32070	37280
591-22-0	3,5-Dimethylpyridine	C7H9N	444.99	39460	49330
591-50-4	Iodobenzene	C6H5I	461.55	39500	
591-76-4	2-Methylhexane	C7H16	363.19	30620	34870
591-78-6	2-Hexanone	C6H12O	400.75	36350	43140
591-87-7	Allyl acetate	C5H8O2	376.65	36300	
5911-04-6	3-Methylnonane	C10H22	441.05	38260	49710
592-13-2	2,5-Dimethylhexane	C8H18	382.27	32540	37850
592-27-8	2-Methylheptane	C8H18	390.81	33260	39670
592-41-6	1-Hexene	C6H12	336.63		30610
592-65-4	Diisobutyl sulfide	C8H18S	444.15		48710
592-76-7	1-Heptene	C7H14	366.79		35490
592-84-7	Butyl formate	C5H10O2	379.25	36580	41110
593-45-3	Octadecane	C18H38	589.45	55230	91440
593-60-2	Bromoethene	C2H3Br	288.95	23400	
594-56-9	2,3,3-Trimethyl-1-butene	C7H14	351.05		32090
594-82-1	2,2,3,3-Tetramethylbutane	C8H18	379.6		42900
597-49-9	3-Ethyl-3-pentanol	C7H16O	415.15		57340
598-53-8	Isopropyl methyl ether	C4H10O	303.92	26050	26410
598-98-1	Methyl 2,2-dimethylpropanoate	C6H12O2	374.25	33420	38760
598-99-2	Methyl trichloroacetate	C3H3Cl3O2	426.95		48330
60-29-7	Diethyl ether	C4H10O	307.65	26520	27100
60-34-4	Methylhydrazine	CH6N2	360.65	36120	40370
600-07-7	2-Methylbutanoic acid	C5H10O2	450.15		46910
6032-29-7	2-Pentanol	C5H12O	392.45	41400	54210
609-26-7	3-Ethyl-2-methylpentane	C8H18	388.81	32930	38520
611-32-5	8-Methylquinoline	C10H9N	520.65		65700
615-38-3	cis-2-Methylcyclohexanol	C7H14O	438.15	48500	
615-39-4	trans-2-Methylcyclohexanol, (±)-	C7H14O	440.65	53000	
616-12-6	3-Methyl-trans-2-pentene	C6H12	343.55		31350
616-21-7	1,2-Dichlorobutane	C4H8Cl2	397.25	33900	39580
616-44-4	3-Methylthiophene	C5H6S	388.65	34240	39430
6163-64-0	tert-Butyl methyl sulfide	C5H12S	372.05	31470	35840
6163-66-2	Di-tert-butyl ether	C8H18O	380.38	32150	37610
617-78-7	3-Ethylpentane	C7H16	366.65	31120	35220
619-99-8	3-Ethylhexane	C8H18	391.75	33590	39640
62-53-3	Aniline	C6H7N	457.32	42440	55830
62016-38-0	2,4,7-Trimethyloctane	C11H24	441.25	38220	49910
623-42-7	Methyl butanoate	C5H10O2	375.95	33790	39280
624-08-8	9-Heptadecanol	C17H36O			108500
624-24-8	Methyl pentanoate	C6H12O2	400.55	35360	43100
624-29-3	cis-1,4-Dimethylcyclohexane	C8H16	397.55	33280	39020
624-64-6	trans-2-Butene	C4H8	274.03	22720	21400
624-89-5	Ethyl methyl sulfide	C3H8S	339.85	29530	31850
624-92-0	Dimethyl disulfide	C2H6S2	382.89	33780	37860
625-23-0	2-Methyl-2-hexanol	C7H16O	416.15		58570
625-25-2	2-Methyl-2-heptanol	C8H18O	429.15		62870
625-27-4	2-Methyl-2-pentene	C6H12	340.45		31600
625-28-5	3-Methylbutanenitrile	C5H9N	400.65	35100	41640
625-44-5	Isobutyl methyl ether	C5H12O	331.75	28020	30130
625-50-3	N-Ethylacetamide	C4H9NO	478.15		64890
625-54-7	Ethyl isopropyl ether	C5H12O	327.25	28210	30080
625-65-0	2,4-Dimethyl-2-pentene	C7H14	356.55		34190
625-80-9	Diisopropyl sulfide	C6H14S	393.15	33800	39600
626-89-1	4-Methyl-1-pentanol	C6H14O	425.05	44460	60470
627-20-3	cis-2-Pentene	C5H10	310.08		26860
627-45-2	N-Ethylformamide	C3H7NO	471.15		58440
627-93-0	Dimethyl 1,6-hexanedioate	C8H14O4			69000
628-17-1	1-Iodopentane	C5H11I	430.15		45270
628-28-4	Butyl methyl ether	C5H12O	343.31	29550	32370
628-29-5	Butyl methyl sulfide	C5H12S	396.55	34470	40460
628-32-0	Ethyl propyl ether	C5H12O	336.36	28940	31430
628-63-7	Pentyl acetate	C7H14O2	422.35	38420	48560
628-73-9	Hexanenitrile	C6H11N	436.8		47910
628-76-2	1,5-Dichloropentane	C5H10Cl2	452.15		50710
628-80-8	Methyl pentyl ether	C6H14O	372.15	32020	36850
628-81-9	Butyl ethyl ether	C6H14O	365.45	31630	36320
629-04-9	1-Bromoheptane	C7H15Br	452.05		50600
629-05-0	1-Octyne	C8H14	399.45	35830	42300
629-06-1	1-Chloroheptane	C7H15Cl	433.55		47660
629-11-8	1,6-Hexanediol	C6H14O2	481.15		90200
629-14-1	1,2-Diethoxyethane	C6H14O2	394.35	36280	43200
629-30-1	1,7-Heptanediol	C7H16O2	535.15		97900
629-41-4	1,8-Octanediol	C8H18O2			104900
629-50-5	Tridecane	C13H28	508.62	46200	66680
629-59-4	Tetradecane	C14H30	526.73	48160	71730
629-62-9	Pentadecane	C15H32	543.75	50080	76770
629-63-0	Tetradecanenitrile	C14H27N			85290
629-73-2	1-Hexadecene	C16H32	558.05		80250
629-76-5	1-Pentadecanol	C15H32O	573.15		103500
629-78-7	Heptadecane	C17H36	575.15	53580	86470
629-92-5	Nonadecane	C19H40	603.05	56930	96400
629-96-9	1-Eicosanol	C20H42O	629.15		125900
630-08-0	Carbon monoxide	CO	81.65	6040	
630-18-2	2,2-Dimethylpropanenitrile	C5H9N	379.25	32400	37350
638-04-0	cis-1,3-Dimethylcyclohexane	C8H16	393.25	32910	38260
638-45-9	1-Iodohexane	C6H13I	454.45		49750
638-46-0	Butyl ethyl sulfide	C6H14S	417.45	37010	44510
64-17-5	Ethanol	C2H6O	351.44	38560	42320
64-18-6	Formic acid	CH2O2	374.15	22690	20100
64-19-7	Acetic acid	C2H4O2	391.05	23700	23360
641-06-5	Triacetamide	C6H9NO3			60410
6443-92-1	cis-2-Heptene	C7H14	371.55		36260
646-04-8	trans-2-Pentene	C5H10	309.49		26760
659-70-1	Isopentyl isopentanoate	C10H20O2	463.55	45900	
661-19-8	1-Docosanol	C22H46O			135900
661-97-2	1,2-Dichloro-1,1,2,3,3,3-hexafluoropropane	C3Cl2F6	307.25	26280	26930
67-56-1	Methanol	CH4O	337.75	35210	37430
67-63-0	2-Propanol	C3H8O	355.45	39850	45390
67-64-1	Acetone	C3H6O	329.2	29100	30990
67-66-3	Trichloromethane	CHCl3	334.32	29240	31280
67-68-5	Dimethyl sulfoxide	C2H6OS	462.15	43100	
674-76-0	4-Methyl-trans-2-pentene	C6H12	331.75		29970
674-82-8	Diketene	C4H4O2	399.25	36800	42890
6742-54-7	Undecylbenzene	C17H28	589.15		82400
68-12-2	N,N-Dimethylformamide	C3H7NO	426.15		46890
6863-58-7	Di-sec-butyl ether	C8H18O	394.25	34060	40840
6876-23-9	trans-1,2-Dimethylcyclohexane	C8H16	396.65	32960	38360
688-74-4	Tributyl borate	C12H27BO3	507.15	56100	
690-08-4	trans-4,4-Dimethyl-2-pentene	C7H14	349.85		32810
690-92-6	cis-2,2-Dimethyl-3-hexene	C8H16	378.65		36860
690-93-7	trans-2,2-Dimethyl-3-hexene	C8H16	373.95		37030
691-37-2	4-Methyl-1-pentene	C6H12	327.05		28710
691-38-3	4-Methyl-cis-2-pentene	C6H12	329.45		29480
6921-35-3	3,3-Dimethyloxetane	C5H10O	353.75	30850	33940
693-95-8	4-Methylthiazole	C4H5NS	406.45	37580	43850
696-29-7	Isopropylcyclohexane	C9H18	427.95		44020
6975-98-0	2-Methyldecane	C11H24	462.45	40250	54280
70116-68-6	3-Methyl-2-butanol, (±)-	C5H12O	386.05		53000
71-23-8	1-Propanol	C3H8O	370.35	41440	47450
71-36-3	1-Butanol	C4H10O	390.88	43290	52350
71-41-0	1-Pentanol	C5H12O	411.13	44360	57020
71-43-2	Benzene	C6H6	353.24	30720	33830
71-55-6	1,1,1-Trichloroethane	C2H3Cl3	347.24	29860	32500
7357-93-9	2-Ethyl-3-methyl-1-butene	C7H14	362.15		34350
74-82-8	Methane	CH4	111.67	8190	
74-83-9	Bromomethane	CH3Br	276.65	23910	22810
74-84-0	Ethane	C2H6	184.55	14690	5160
74-85-1	Ethylene	C2H4	169.38	13530	
74-87-3	Chloromethane	CH3Cl	249.06	21400	18920
74-88-4	Iodomethane	CH3I	315.58	27340	27970
74-89-5	Methylamine	CH5N	266.83	25600	23370
74-95-3	Dibromomethane	CH2Br2	370.15	32920	36970
74-96-4	Bromoethane	C2H5Br	311.65	27040	28030
74-97-5	Bromochloromethane	CH2BrCl	341.15	30000	
74-98-6	Propane	C3H8	231.05	19040	14790
7429-90-5	Aluminum	Al	2792.15	294000	
7439-90-9	Krypton	Kr	119.735	9080	
7439-92-1	Lead	Pb	2022.15	179500	
7439-97-6	Mercury	Hg	629.769	59110	
7440-01-9	Neon	Ne	27.1	1710	
7440-37-1	Argon	Ar	87.3	6430	
7440-39-3	Barium	Ba	2118.15	140000	
7440-42-8	Boron	B	4273.15	480000	
7440-43-9	Cadmium	Cd	1040.15	99870	
7440-55-3	Gallium	Ga	2502.15	254000	
7440-56-4	Germanium	Ge	3106.15	334000	
7440-57-5	Gold	Au	3109.15	324000	
7440-59-7	Helium	He	4.222	80	
7440-63-3	Xenon	Xe	165.06	12570	
7440-69-9	Bismuth	Bi	1837.15	151000	
7446-09-5	Sulfur dioxide	O2S	263.1	24940	22920
7446-11-9	Sulfur trioxide (β-form)	O3S	317.65	40690	43140
7487-94-7	Mercury(II) chloride	Cl2Hg	577.15	58900	
75-00-3	Chloroethane	C2H5Cl	285.45	24650	
75-01-4	Chloroethene	C2H3Cl	259.35	20800	
75-03-6	Iodoethane	C2H5I	345.45	29440	31930
75-05-8	Acetonitrile	C2H3N	354.8	29750	32940
75-07-0	Acetaldehyde	C2H4O	293.25	25760	25470
75-08-1	Ethanethiol	C2H6S	308.15	26790	27300
75-09-2	Dichloromethane	CH2Cl2	313.15	28060	28820
75-11-6	Diiodomethane	CH2I2	455.15	42500	
75-12-7	Formamide	CH3NO	493.15		60150
75-15-0	Carbon disulfide	CS2	319.15	26740	27510
75-18-3	Dimethyl sulfide	C2H6S	310.48	27000	27650
75-19-4	Cyclopropane	C3H6	240.34	20050	16930
75-21-8	Oxirane	C2H4O	283.75	25540	24750
75-25-2	Tribromomethane	CHBr3	422.25	39660	46050
75-26-3	2-Bromopropane	C3H7Br	332.65	28330	30170
75-28-5	Isobutane	C4H10	261.42	21300	19230
75-29-6	2-Chloropropane	C3H7Cl	308.85	26300	26900
75-30-9	2-Iodopropane	C3H7I	362.65	30680	34060
75-31-0	Isopropylamine	C3H9N	304.91	27830	28360
75-33-2	2-Propanethiol	C3H8S	325.75	27910	29450
75-34-3	1,1-Dichloroethane	C2H4Cl2	330.45	28850	30620
75-35-4	1,1-Dichloroethene	C2H2Cl2	304.75	26140	26480
75-37-6	1,1-Difluoroethane	C2H4F2	249.1	21560	19080
75-43-4	Dichlorofluoromethane	CHCl2F	282.05	25200	
75-45-6	Chlorodifluoromethane	CHClF2	232.45	20200	
75-50-3	Trimethylamine	C3H9N	276.02	22940	21660
75-52-5	Nitromethane	CH3NO2	374.34	33990	38270
75-64-9	tert-Butylamine	C4H11N	317.19	28270	29640
75-65-0	2-Methyl-2-propanol	C4H10O	355.55	39070	46690
75-66-1	2-Methyl-2-propanethiol	C4H10S	337.35	28450	30780
75-69-4	Trichlorofluoromethane	CCl3F	296.85	25100	
75-71-8	Dichlorodifluoromethane	CCl2F2	243.35	20100	
75-72-9	Chlorotrifluoromethane	CClF3	191.78	15800	
75-83-2	2,2-Dimethylbutane	C6H14	322.88	26310	27680
75-85-4	2-Methyl-2-butanol	C5H12O	375.55	39040	50100
75-97-8	3,3-Dimethyl-2-butanone	C6H12O	379.25	33390	37910
7550-45-0	Titanium(IV) chloride	Cl4Ti	409.6	36200	
7553-56-2	Iodine	I2	457.55	41570	
76-01-7	Pentachloroethane	C2HCl5	435.15	36900	
76-05-1	Trifluoroacetic acid	C2HF3O2	346.15	33300	
76-13-1	1,1,2-Trichloro-1,2,2-trifluoroethane	C2Cl3F3	320.85	27040	28400
76-14-2	1,2-Dichloro-1,1,2,2-tetrafluoroethane	C2Cl2F4	276.65	23300	
76-15-3	Chloropentafluoroethane	C2ClF5	234.05	19410	
76-16-4	Hexafluoroethane	C2F6	195.05	16150	
760-20-3	3-Methyl-1-pentene	C6H12	327.35		28620
760-21-4	2-Ethyl-1-butene	C6H12	337.85		31130
7616-94-6	Perchloryl fluoride	ClFO3	226.4	19330	
762-62-9	4,4-Dimethyl-1-pentene	C7H14	345.65		31130
762-63-0	cis-4,4-Dimethyl-2-pentene	C7H14	353.55		32560
763-29-1	2-Methyl-1-pentene	C6H12	335.25		30480
7632-51-1	Vanadium(IV) chloride	Cl4V	424.15	41400	42500
7637-07-2	Boron trifluoride	BF3	173.25	19330	
7642-09-3	cis-3-Hexene	C6H12	339.55		31230
7642-10-6	cis-3-Heptene	C7H14	368.95		35810
7646-78-8	Tin(IV) chloride	Cl4Sn	387.3	34900	
7646-85-7	Zinc chloride	Cl2Zn	1005.15	126000	
7647-01-0	Hydrogen chloride	ClH	188.15	16150	9080
7647-19-0	Phosphorus(V) fluoride	F5P	188.55	17200	
765-04-8	1,11-Undecanediol	C11H24O2			132000
765-43-5	Cyclopropyl methyl ketone	C5H8O	384.45	34070	39410
765-85-5	Methyl cyclobutanecarboxylate	C6H10O2	408.65	37130	44720
766-05-2	Cyclohexanecarbonitrile	C7H11N	457.15		51920
7664-41-7	Ammonia	H3N	239.82	23330	19860
7688-21-3	cis-2-Hexene	C6H12	341.95		32190
7697-37-2	Nitric acid	HNO3	356.15		39100
7699-45-8	Zinc bromide	Br2Zn	943.15	118000	
7704-34-9	Sulfur (rhombic)	S	717.76	45000	
7705-07-9	Titanium(III) chloride	Cl3Ti	1233.15	124000	
771-56-2	2,3,4,5,6-Pentafluorotoluene	C7H3F5	390.65	34750	41120
7719-09-7	Thionyl chloride	Cl2OS	348.75	31700	31000
7719-12-2	Phosphorus(III) chloride	Cl3P	349.15	30500	32100
7720-83-4	Titanium(IV) iodide	I4Ti	650.15	58400	
7721-01-9	Tantalum(V) chloride	Cl5Ta	512.15	54800	
7722-84-1	Hydrogen peroxide	H2O2	423.35		51600
7723-14-0	Phosphorus (white)	P	553.65	12400	14200
7726-95-6	Bromine	Br2	331.95	29960	30910
7727-15-3	Aluminum bromide	AlBr3	528.15	23500	
7727-18-6	Vanadyl trichloride	Cl3OV	400.15	36780	
7727-37-9	Nitrogen	N2	77.36	5570	
7732-18-5	Water	H2O	373.12	40650	43980
7735-42-4	1,16-Hexadecanediol	C16H34O2			163000
7758-95-4	Lead(II) chloride	Cl2Pb	1224.15	127000	
7772-99-8	Tin(II) chloride	Cl2Sn	896.15	86800	
7774-29-0	Mercury(II) iodide (yellow)	HgI2	624.15	59200	
7782-41-4	Fluorine	F2	85.04	6620	
7782-44-7	Oxygen	O2	90.2	6820	
7782-49-2	Selenium (α form)	Se	958.15	95480	
7782-50-5	Chlorine	Cl2	239.11	20410	17650
7782-65-2	Germane	GeH4	185.05	14060	
7782-79-8	Hydrazoic acid	HN3	308.85	30500	
7783-06-4	Hydrogen sulfide	H2S	213.6	18670	14080
7783-07-5	Hydrogen selenide	H2Se	231.9	19700	
7783-09-7	Hydrogen telluride	H2Te	271.15	19200	
7783-26-8	Trisilane	H8Si3	326.05	28500	
7783-41-7	Fluorine monoxide	F2O	128.85	11090	
7783-42-8	Thionyl fluoride	F2OS	229.35	21800	
7783-44-0	Difluorine dioxide	F2O2	216.15	19100	
7783-46-2	Lead(II) fluoride	F2Pb	1566.15	160400	
7783-49-5	Zinc fluoride	F2Zn	1773.15	190100	