CAS	Chemical	Tc	C1	C2	C3	C4	Tmin	Tmax
629-59-4	Tetradecane  	693	90539	0.44467	0	0	279.01	693
109-99-9	Tetrahydrofuran  	540.15	43021	0.36972	0	0	164.65	540.15
119-64-2	1,2,3,4-Tetrahydronaphthalene  	720	68086	0.43054	0	0	237.38	720
110-01-0	Tetrahydrothiophene  	631.95	50642	0.38904	0	0	176.99	631.95
594-82-1	2,2,3,3-Tetramethylbutane  	568	49055	0.40678	0	0	373.96	568
110-02-1	Thiophene  	579.35	45854	0.38756	0	0	234.94	579.35
108-88-3	Toluene  	591.75	49507	0.37742	0	0	178.18	591.75
79-00-5	1,1,2-Trichloroethane  	602	50929	0.38013	0	0	236.5	602
629-50-5	Tridecane  	675	84339	0.4257	0	0	267.76	675
121-44-8	Triethyl amine  	535.15	46640	0.3663	0	0	158.45	535.15
75-50-3	Trimethyl amine  	433.25	33050	0.354	0	0	156.08	433.25
526-73-8	1,2,3-Trimethylbenzene  	664.5	59996	0.35578	0	0	247.79	664.5
95-63-6	1,2,4-Trimethylbenzene  	649.1	59254	0.35709	0	0	229.33	649.1
540-84-1	2,2,4-Trimethylpentane  	543.8	47711	0.37949	0	0	165.78	543.8
560-21-4	2,3,3-Trimethylpentane  	573.5	49910	0.383	0	0	172.22	573.5
99-35-4	1,3,5-Trinitrobenzene  	846	106870	0.38	0	0	398.4	846
118-96-7	2,4,6-Trinitrotoluene  	828	106860	0.40074	0	0	354	828
1120-21-4	Undecane  	639	72284	0.40607	0	0	247.57	639
112-42-5	1-Undecanol  	703.9	87274	-1.5834	5.0913	-3.2171	288.45	703.9
108-05-4	Vinyl acetate  	519.13	47700	0.3765	0	0	180.35	519.13
689-97-4	Vinyl acetylene  	454	36490	0.4	0.043	0	173.15	454
75-01-4	Vinyl chloride  	432	34125	0.4513	0	0	119.36	432
75-94-5	Vinyl trichlorosilane  	543.15	45659	0.36278	0	0	178.35	543.15
7732-18-5	Water  	647.096	52053	0.3199	-0.212	0.25795	273.16	647.096
108-38-3	m-Xylene  	617	54626	0.37289	0	0	225.3	617
95-47-6	o-Xylene  	630.3	55395	0.37788	0	0	247.98	630.3
106-42-3	p-Xylene  	616.2	53819	0.36695	0	0	286.41	616.2