CAS	Chemical	MW	Tc	A	B	C	D	E
93-58-3	Methyl benzoate	136.15	693.05	11.25328	1.94206	-1.556784	-5.3511	89.919764
93-89-0	Ethyl benzoate	150.18	698	11.62555	-0.15927	0.128177	-0.053452	0.079776
119-36-8	Methyl salicylate	152.15	709	8.98498	7.09493	-4.043975	0.8692	-0.378981
74-89-5	Methyl amine	31.06	430.05	6.68704	5.59469	-0.071556	-3.085246	7.431487
75-04-7	Ethyl amine	45.09	456.15	7.77766	1.82614	3.635806	-4.492103	9.842348
107-10-8	Propyl amine	59.11	496.95	3.3934	12.71924	-1.316011	-8.14044	9.108951
109-73-9	n-butyl amine	73.14	531.95	6.9026	7.60459	-3.614348	0.074152	0.044303
124-40-3	Dimethyl amine	45.09	437.25	5.68174	10.178	-5.691902	1.408236	-1.170463
75-50-3	Trimethyl amine	59.11	433.25	7.62398	3.76969	-2.925155	0.979043	-1.193023
109-89-7	Diethyl amine	73.14	496.65	5.33934	10.56571	-5.837037	1.428051	-1.122078
121-44-8	Triethyl amine	101.19	535.15	7.74933	6.41111	-4.87848	1.631371	-1.542623
110-89-4	Piperidine	85.15	594	6.48159	6.79118	-3.820956	0.886131	-0.635871
110-86-1	Pyridine	79.1	620	6.78808	5.1913	-1.422034	-1.391907	4.49126
62-53-3	Aniline	93.13	699.05	7.07225	8.70667	-3.991451	-1.65652	3.263408
100-61-8	N-Methyl aniline	107.16	701.5	13.26061	-5.02657	3.272891	-0.737961	0.244629
121-69-7	N,N-dimethyl aniline	121.18	687.2	13.4731	-6.35431	4.138973	-0.981377	0.533077
91-66-7	N,N-diethyl aniline	149.24	702	6.19042	11.73523	-5.842622	1.090567	-0.337465
100-63-0	Phenylhydrazine	108.14	761	21.89034	-26.13478	18.999009	-5.040744	2.813373
122-39-4	Diphenyl amine	169.23	817	11.9684	0.31904	-0.177413	0.024112	0.020506
75-05-8	Acetonitrile	41.05	545.55	12.63773	-0.41956	-9.636566	15.912158	-123.3607
107-12-0	Propionitrile	55.08	564.4	5.39746	9.28762	-5.079418	1.116363	-0.448885
109-74-0	Butyronitrile	69.11	582.3	15.18066	-13.56898	8.892253	1.838158	-2.367991
100-47-0	Benzonitrile	103.12	699.35	9.80839	3.4499	-5.365836	4.172565	-1.195374
75-12-7	Formamide	45.04	771	9.70079	3.52359	-2.149747	0.503265	-0.248567
75-52-5	Nitromethane	61.04	588.2	10.84612	0.90457	-3.763319	2.190125	3.811262
98-95-3	Nitrobenzene	123.11	719.05	13.98596	-19.90491	26.349415	-13.211884	12.803755
88-72-2	o-Nitrotoluene	137.14	720.05	11.62596	2.43803	-5.209765	3.612648	1.807934
99-08-1	m-Nitrotoluene	137.14	734.05	12.4641	-0.06534	-3.559221	4.246115	-10.130675
99-99-0	p-Nitrotoluene	137.14	743.05	9.68851	4.92278	-5.325247	4.020553	-13.754145