CASRN	Name	Tm	Tb	rho	RI
288-36-8	1H-1,2,3-Triazole	296.15	477.15	1186.125	1.485425
288-39-1	1,2,5-Thiadiazole	223.05	367.15	1268.25	1.515025
288-42-6	Oxazole		342.65		1.428517
288-47-1	Thiazole	239.54	391.35	1199.817	1.59692
288-88-0	1H-1,2,4-Triazole	393.15	477.15		
288-94-8	1H-Tetrazole	430.05		1406.02	
288-99-3	1,3,4-Oxadiazole		423.15		1.430025
2882-98-6	Nonylcyclopentane	244.15	535.15	808.12	1.44672
2883-02-5	Nonylcyclohexane	263.15	554.15	816.32	1.45192
2885-00-9	1-Octadecanethiol	303.15		847.52	1.46452
289-06-5	1,3,4-Thiadiazole	315.65	477.15		
289-65-6	4H-Pyran		353.15		1.45592
289-80-5	Pyridazine	265.15	481.15	1103.523	1.52182
289-95-2	Pyrimidine	295.15	396.95	1079.225	1.49982
28911-01-5	Triazolam	507.15			
2892-18-4	5-Methyl-1-phenyl-1-hexen-3-one	316.15		950.946	1.552325
2896-60-8	4-Ethyl-1,3-benzenediol	371.65			
28994-41-4	2-Benzylphenol	294.15	585.15		1.59942
290-37-9	Pyrazine	325.45	389.45	1031.161	1.495361
290-38-0	1,2,4-Triazine	289.65	430.15		1.514925
290-87-9	1,3,5-Triazine	353.45	386.15	1382.5	
290-96-0	1,2,4,5-Tetrazine	372.15	391.15		
29003-73-4	Butyl dichloroacetate		466.65	1182.02	1.44202
2902-96-7	2-Nitro-1-propanol			1184.125	1.43792
2905-56-8	1-Benzylpiperidine		518.15	962.516	1.52272
2905-60-4	2,3-Dichlorobenzoyl chloride				
2905-61-5	2,5-Dichlorobenzoyl chloride				
2905-65-9	Methyl 3-chlorobenzoate	294.15	502.15		
2905-69-3	Methyl 2,5-dichlorobenzoate	311.15			
29074-38-2	Canadine, (±)-	407.15			
29082-74-4	Octachlorostyrene	372.15			
2909-38-8	1-Chloro-3-isocyanatobenzene				
29091-05-2	Dinitramine	372.45			
29091-21-2	Prodiamine	397.15		1472.5	
291-21-4	1,3,5-Trithiane	488.15		1637.424	
291-64-5	Cycloheptane	265.15	391.95	809.82	1.44362
29106-32-9	2-Cyclopentene-1-tridecanoic acid, (S)-	341.15			
2912-62-1	α-Chlorobenzeneacetyl chloride			1196.25	1.54402
29122-68-7	Atenolol	420.15			
29136-19-4	Nonadecylbenzene	302.65	692.15	854.52	1.48072
2915-53-9	Dioctyl maleate			942	1.45392
2917-26-2	1-Hexadecanethiol	292.15			
2917-47-7	3-(Trimethylsilyl)-1-propanol		414.15	822.25	1.42982
2917-73-9	Dibutyl nonanedioate				
2919-23-5	Cyclobutanol		397.15	921.815	1.43712
292-46-6	1,2,3,5,6-Pentathiepane	333.65			
292-64-8	Cyclooctane	287.97	424.25	834.92	1.45862
2920-38-9	[1,1'-Biphenyl]-4-carbonitrile	361.15			
29204-02-2	cis-9-Eicosenoic acid	297.65		888.225	1.459725
2921-14-4	(Aminooxy)acetic acid, hydrochloride (2:1)	425.65			
2921-88-2	Chlorpyrifos	316.15			
2921-92-8	Propatyl nitrate	325.15		1490	
2922-51-2	2-Heptadecanone	321.35	593.15	804.948	
2923-18-4	Sodium trifluoroacetate				
29232-93-7	Pirimiphos-methyl	288.15		1172	
2929-86-4	Tri(decyl) phosphite				
293-55-0	Cyclononane	283.85	446.15	846.325	1.46662
293-96-9	Cyclodecane	283.55	475.45	853.825	1.47162
2935-44-6	2,5-Hexanediol	316.15	502.15	961.02	1.44752
2935-90-2	Methyl 3-mercaptopropanoate			1085.25	1.46402
2937-50-0	Allyl chloroformate		382.65	1136	1.42202
294-62-2	Cyclododecane	333.95	517.15	828	
29400-42-8	Helvolic acid				
2941-64-2	S-Ethyl chlorothioformate		409.15	1195.2	1.48202
2942-59-8	2-Chloro-3-pyridinecarboxylic acid				
2943-70-6	1,3-Bis(dichloromethyl)tetramethyldisiloxane			1221.32	1.46602
2947-61-7	4-Methylbenzeneacetonitrile	291.15	515.65	992.25	1.51902
295-48-7	Cyclopentadecane	337.15		836.461	1.459261
29548-30-9	Farnesol acetate				
2955-88-6	1-Pyrrolidineethanol		460.15	975.02	1.47132
2958-36-3	2-Amino-2',5-dichlorobenzophenone	353.15			
29606-79-9	trans-5-Methyl-2-(1-methylvinyl)cyclohexanone			919.82	1.46752
2961-47-9	4-(1-Butylpentyl)pyridine		538.15	887.825	1.484625
29662-90-6	2,2-Dimethyloctanoic acid				
2969-81-5	Ethyl 4-bromobutanoate		465.15	1354.02	1.45592
297-78-9	Isobenzan	395.35			
297-97-2	Thionazin	272.25	353.15		
2971-22-4	1,1,1-Trichloro-2,2-diphenylethane	338.15			
2971-90-6	Clopidol	593.15			
2973-76-4	3-Bromo-4-hydroxy-5-methoxybenzaldehyde	440.15			
29761-21-5	Isodecyl diphenyl phosphate				
29767-20-2	Teniposide	517.15			
2978-58-7	2-Methyl-3-butyn-2-amine	291.15	352.65	792.5	1.42352
2979-19-3	3,3-Dimethylcyclohexanone		453.15	909.15	1.448217
298-00-0	Methyl parathion	308.95		1358.2	1.536725
298-02-2	Phorate	258.15		1162.5	
298-04-4	Disulfoton	248.15		1144.2	
298-06-6	O,O'-Diethyl phosphorodithionate				
298-07-7	Bis(2-ethylhexyl) phosphate			975.25	
298-12-4	Glyoxylic acid	371.15			
298-45-3	Bulbocapnine	472.65			
298-46-4	5H-Dibenz[b,f]azepine-5-carboxamide	463.35			
298-81-7	Methoxsalen	421.15			
298-96-4	Triphenyltetrazolium chloride				
2980-71-4	2-Methyl-1-nonene	208.95	440.15	741.225	1.42412
2983-26-8	1,2-Dibromo-1-ethoxyethane			1732.02	1.50442
2983-37-1	Ethyl 2-ethylhexanoate			858.625	1.412325
2985-59-3	4-Dodecyloxy-2-hydroxybenzophenone	316.65			
2987-53-3	2-(Methylthio)aniline		507.15	1111.25	1.62392
29882-57-3	2-Chloropentane, (+)	136.15	369.45	869.82	1.40692
29883-15-6	Amygdalin	497.65			
299-27-4	Potassium D-gluconate				
299-28-5	Calcium gluconate				
299-29-6	Ferrous gluconate				
299-42-3	l-Ephedrine	313.15	498.15	1008.522	
299-45-6	Hymecromone O,O-diethyl phosphorothioate	311.15		1260.38	1.568537
299-84-3	Ronnel	315.75		1443.2	1.533535
299-85-4	DMPA	324.95			
299-86-5	Crufomate	333.25			
29943-42-8	Tetrahydro-4H-pyran-4-one		439.65	1084.25	1.45202
2996-92-1	Trimethoxyphenylsilane			1064.2	1.47342
29964-84-9	Isodecyl methacrylate			876.2	
2999-74-8	Dimethylmagnesium				
300-38-9	3,5-Dibromo-L-tyrosine	518.15			
300-39-0	3,5-Diiodo-L-tyrosine	486.15			
300-57-2	Allylbenzene	233.15	431.15	892.02	1.51312
300-62-9	1-Phenyl-2-propylamine, (±)-		471.15	930.625	1.51826
300-76-5	Naled	300.15		1962	
300-87-8	3,5-Dimethylisoxazole		415.15	992.5	1.44212
300-92-5	Aluminum distearate	418.15			
3000-79-1	2-Methylpiperidine, (±)-	270.65	391.15	843.624	1.44592
3001-72-7	2,3,4,6,7,8-Hexahydropyrrolo[1,2-a]pyrimidine			1005.25	1.51902
3002-24-2	2,4-Hexanedione		433.15	959.2	1.45162
3004-93-1	2-Methyloctanoic acid				1.428125
3007-31-6	Didodecylamine	320.05			
3008-39-7	1,2-Cycloheptanedione	233.15		1058.322	1.468922
301-00-8	Methyl linolenate	224.15	621.15	895.25	1.47092
301-02-0	cis-9-Octadecenamide	349.05			
301-12-2	Oxydemeton-methyl	253.15		1289.2	
301-21-3	Laudanidine	457.65			
3010-02-4	(Diethylamino)acetonitrile		442.15	866.02	1.42602
3010-82-0	1,4-Benzenedicarboxamide	595.45			
3012-37-1	Benzyl thiocyanate	316.15	505.15		
3016-19-1	trans,trans-2,6-Dimethyl-2,4,6-octatriene	237.75	461.15	811.82	1.54462
3017-68-3	cis-2-Bromo-2-butene	161.95	362.15	1341.615	1.463119
3017-69-4	1-Bromo-2-methylpropene		364.15	1336.2	
3017-71-8	trans-2-Bromo-2-butene	157.75	359.15	1332.315	1.460216
3017-95-6	2-Bromo-1-chloropropane		390.15	1537.2	1.47952
3017-96-7	1-Bromo-2-chloropropane		391.15	1531.2	1.47452
3018-12-0	Dichloroacetonitrile		385.65	1369.2	1.439125
3019-04-3	Iodoacetone			2171.5	
3019-20-3	(Isopropylthio)benzene		481.15	985.22	1.54642
302-17-0	Chloral hydrate	325.15		1908.12	
302-27-2	Aconitine	477.15			
302-40-9	Benactyzine	324.15			
302-70-5	Nitrogen mustard N-oxide hydrochloride	383.15			
302-72-7	DL-Alanine			1424.25	
302-79-4	13-trans-Retinoic acid	454.65			
302-84-1	DL-Serine			1603.22	
3024-72-4	3,4-Dichlorobenzoyl chloride	298.15	515.15		
3027-21-2	Dimethoxymethylphenylsilane				1.47952
30273-11-1	4-sec-Butylaniline		511.15	949.15	1.536029
3029-79-6	trans-m-Methylcinnamic acid	388.15			
303-07-1	2,6-Dihydroxybenzoic acid	444.15			
303-34-4	Lasiocarpine	368.65			
303-38-8	2,3-Dihydroxybenzoic acid	478.15		1542.2	
303-43-5	Cholest-5-en-3-ol (3β)-, cis-9-octadecenoate	321.05			
303-81-1	Novobiocin	427.15		1344.8	
3030-47-5	N-[2-(Dimethylamino)ethyl]-N,N',N'-trimethyl-1,2-ethanediamine				1.441325
3031-66-1	3-Hexyne-2,5-diol			1018.02	1.46912
3031-73-0	Methyl hydroperoxide	201.15	359.15	1996.715	1.364115
3031-74-1	Ethyl hydroperoxide	173.15	368.15	933.22	1.38002
3032-55-1	1,1,1-Tris(hydroxymethyl)ethane trinitrate				
3033-62-3	Bis(2-dimethylaminoethyl) ether				
3034-38-6	4-Nitro-1H-imidazole				
3034-53-5	2-Bromothiazole		444.15	1822.5	1.59272
3036-66-6	1-Methoxy-1,3-butadiene		365.15	829.62	1.45942
30389-18-5	1-Ethynylcyclohexanamine			913.25	1.48172
304-21-2	Harmaline	503.15			
304-55-2	2,3-Dimercaptobutanedioic acid, (R*,S*)	466.15			
304-84-7	N,N-Diethyl-4-hydroxy-3-methoxybenzamide	368.15			
304-88-1	N-Hydroxy-N-phenylbenzamide	394.15			
3040-44-6	1-Piperidineethanol	291.05	475.15	970.325	1.47492
3042-22-6	2-Phenyl-1H-pyrrole	403.15	543.15		
3047-38-9	1-Cyclopentenecarbonitrile				
3048-64-4	5-Vinyl-2-norbornene	193.15	413.85	841	1.48102
305-01-1	6,7-Dihydroxy-2H-1-benzopyran-2-one	549.15			
305-03-3	Chlorambucil	340.05			
305-62-4	2,4-Diaminobutanoic acid	391.25			
305-84-0	Carnosine	533.15			
305-85-1	2,6-Diiodo-4-nitrophenol	430.15			
3051-09-0	Murexide				
3051-11-4	Brilliant Yellow				
30516-87-1	Zidovudine	394.15			
30525-89-4	Paraformaldehyde				
3054-95-3	3,3-Diethoxy-1-propene		396.65	854.315	1.40002
30560-19-1	Acephate	365.15		1352	
3058-39-7	4-Iodobenzonitrile	400.65			
306-08-1	4-Hydroxy-3-methoxybenzeneacetic acid	416.65			
306-37-6	1,2-Dimethylhydrazine dihydrochloride				
306-44-5	2-Oxopropanal oxime	342.15		1074.467	
306-52-5	Triclofos	393.65			
306-67-2	N,N'-Bis(3-aminopropyl)-1,4-butanediamine, tetrahydrochloride	574.65			
306-83-2	2,2-Dichloro-1,1,1-trifluoroethane	166.15	300.95	1463.825	
306-94-5	Perfluorodecalin	264.95	416.15	1930.525	
3060-89-7	Metobromuron	369.05		1602	
3066-71-5	Cyclohexyl acrylate		456.15	1027.52	1.46732
3068-00-6	1,2,4-Butanetriol			1182	1.46882
3068-88-0	4-Methyl-2-oxetanone			1055.52	
30685-95-1	trans-α-Ionone, (±)-			929.821	1.50412
307-30-2	2,2,3,3,4,4,5,5,6,6,7,7,8,8,8-Pentadecafluoro-1-octanol	320.15	437.15		
307-34-6	Perfluorooctane		378.15	1732	1.2822
307-35-7	Perfluorooctylsulfonyl fluoride		427.15		
307-45-9	Perfluorodecane		408.15		
3070-53-9	1,6-Heptadiene		362.15		
3071-32-7	1-Phenylethyl hydroperoxide				
3073-66-3	1,1,3-Trimethylcyclohexane	204.65	409.75	774.925	1.42952
3073-77-6	5-Nitropyrimidinamine	509.65			
3073-87-8	1,4-Bis(4-methyl-5-phenyloxazol-2-yl)benzene	505.15			
3073-92-5	Butyl propyl ether		390.15	777.2	
3074-71-3	2,3-Dimethylheptane	157.15	413.75	726.02	1.40882
3074-75-7	4-Ethyl-2-methylhexane		407.15	719.525	1.40632
3074-76-8	3-Ethyl-3-methylhexane		413.15	737.125	1.41402
3074-77-9	3-Ethyl-4-methylhexane		413.15	742.02	1.41342
30752-19-3	1-Bromo-4-(hexyloxy)benzene			1230.62	1.52622
3076-04-8	Tridecyl acrylate			882	
3079-28-5	1-(Methylsulfinyl)decane	325.65			
308-24-7	Undecafluorocyclohexane		335.15		
3081-24-1	L-Phenylalanine, ethyl ester	409.15		1065.15	
3083-23-6	(Trichloromethyl)oxirane		422.15	1495.2	1.473725
3083-25-8	1,1,1-Trichloro-3,4-epoxybutane				
3085-30-1	Tributyl aluminate				
3087-37-4	Tetrapropyl titanate				
3088-41-3	1-Piperidinepropanenitrile	266.35		940.325	1.467625
309-00-2	Aldrin	376.95			
30903-87-8	Lithium oxalate			2121.17	
3096-52-4	2-Nitro-9H-fluoren-9-one	497.45			
3101-60-8	[(4-tert-Butylphenoxy)methyl]oxirane			1036.25	1.51452
3102-33-8	trans-3-Penten-2-one		395.15	862.42	1.43502
3105-95-1	2-Piperidinecarboxylic acid, (S)-	533.15			
311-28-4	Tetrabutylammonium iodide	418.15			
311-45-5	Paraoxon			1268.325	1.5096
311-81-9	cis-1,2-Dichloro-1,2-difluoroethene	153.55	294.25	1495	
311-89-7	Tris(perfluorobutyl)amine		451.15	1884.25	1.29125
3112-85-4	Methyl phenyl sulfone	361.15			
3112-88-7	(Benzylsulfonyl)benzene	419.15		1126.1153	
3115-68-2	Tetrabutylphosphonium bromide	376.65			
31178-68-4	α-D-Arabinose	429.15		1585.25	
31178-69-5	β-D-Arabinose	429.15		1625.25	
3118-97-6	1-[(2,4-Dimethylphenyl)azo]-2-naphthol	439.15			
312-40-3	Difluorodiphenylsilane		519.15	1145.17	1.522125
312-84-5	D-Serine				
3121-61-7	2-Methoxyethyl acrylate			1012.2	
31218-83-4	Propetamphos			1129.42	
31252-42-3	4-Benzylpiperidine	289.95	543.15	997.02	1.533725
3128-06-1	5-Oxohexanoic acid	286.65	547.65	1092.5	1.44512
3128-07-2	6-Oxoheptanoic acid	313.35			1.430625
3129-90-6	Isothiocyanic acid				
3129-91-7	Dicyclohexylamine nitrite	452.65			
31294-92-5	3-Iodoheptane			1367.62	
313-72-4	Perfluoronaphthalene	352.15	473.15		
3132-99-8	3-Bromobenzaldehyde		507.15		1.59352
31367-46-1	3-Methyl-2-heptanol		439.15	817.725	1.419925
314-13-6	Evan's Blue				
314-19-2	Apomorphine, hydrochloride				
314-40-9	Bromacil	430.95		1552.5	
3140-93-0	2,3-Dibromothiophene	255.65	491.65		1.630422
3141-24-0	2,3,5-Tribromothiophene	302.15	533.15		
3141-26-2	3,4-Dibromothiophene	277.65	490.15		
3141-27-3	2,5-Dibromothiophene	267.15	483.45	2142.23	1.62882
31431-39-7	Mebendazole	561.65			
3144-16-9	d-Camphorsulfonic acid				
3147-55-5	3,5-Dibromo-2-hydroxybenzoic acid	501.15			
315-18-4	Mexacarbate	362.05			
315-22-0	Monocrotaline				
315-30-0	Allopurinol	623.15			
3152-68-9	1-Phenyl-1-penten-3-one	311.65		869.72	1.56842
3153-26-2	Oxobis(2,4-pentanedione)vanadium	531.15			
3153-36-4	Ethyl 4-chlorobutanoate		457.15	1075.62	1.43112
3153-37-5	Methyl 4-chlorobutanoate		434.15	1129.32	1.43212
31543-75-6	2,4-Dibromo-1-methylbenzene	263.15		1817.625	1.596425
3156-70-5	1-Nitro-1-propene			1066.12	1.45272
3158-26-7	Octyl isocyanate				
3163-27-7	1-(Bromomethyl)naphthalene	329.15			
3167-49-5	6-Amino-3-pyridinecarboxylic acid	585.15			
317-52-2	Hexafluorenium bromide	461.15			
3171-45-7	4,5-Dimethyl-1,2-benzenediamine	401.15			
3172-52-9	2,5-Dichlorothiophene	232.65	438.15	1442.22	1.56262
3173-53-3	Cyclohexyl isocyanate		445.15	982.5	1.45512
3173-72-6	1,5-Naphthalene diisocyanate	400.15			
3174-74-1	3,6-Dihydro-2H-pyran		368.15	941.9	
3175-23-3	1,2,2-Trichloropropane		396.15	1318.25	1.46092
3178-22-1	tert-Butylcyclohexane	231.95	444.75	812.72	1.44692
3178-29-8	4-Propylheptane		440.15	732.125	1.41352
3179-31-5	1,2-Dihydro-3H-1,2,4-triazole-3-thione	495.65			
3179-63-3	3-(Dimethylamino)-1-propanol		436.65	872.25	1.43602
3180-09-4	2-Butylphenol	253.15	507.15	975.2	1.518025
3184-13-2	L-Ornithine, monohydrochloride	488.15			
31849-78-2	cis-1-Bromo-1-butene		359.15	1326.515	1.45362
31879-05-7	2-(3-Phenoxyphenyl)propanoic acid, (±)-				1.574225
3188-13-4	(Chloromethoxy)ethane		356.15	1018.815	1.40402
319-84-6	1,2,3,4,5,6-Hexachlorocyclohexane, (1α,2α,3β,4α,5β,6β)	430.55			
319-85-7	1,2,3,4,5,6-Hexachlorocyclohexane, (1α,2β,3α,4β,5α,6β)			1891.9	
319-86-8	1,2,3,4,5,6-Hexachlorocyclohexane, (1α,2α,3α,4β,5α,6β)	410.15			
319-88-0	1,3,5-Trichloro-2,4,6-trifluorobenzene		472.15		
319-89-1	2,3,5,6-Tetrahydroxy-2,5-cyclohexadiene-1,4-dione				
3194-15-8	1-(2-Furanyl)-1-propanone	301.15		1062.628	1.492225
3194-55-6	1,2,5,6,9,10-Hexabromocyclododecane	440.15			
3196-15-4	Methyl 2-bromobutanoate		441.15	1452.82	1.402925
31980-29-7	Nicofibrate	322.15			
320-51-4	4-Chloro-3-(trifluoromethyl)aniline	309.65			
320-60-5	2,4-Dichloro-1-(trifluoromethyl)benzene				1.48022
320-67-2	Azacitidine	502.15			
320-72-9	3,5-Dichloro-2-hydroxybenzoic acid	493.65			
320-77-4	Isocitric acid	378.15			
3202-84-4	4-(2-Hydroxybenzoyl)morpholine				
3208-16-0	2-Ethylfuran		365.15	901.82	1.44032
3209-22-1	1,2-Dichloro-3-nitrobenzene	333.85	530.65	1721.14	
321-14-2	5-Chloro-2-hydroxybenzoic acid	447.95			
321-28-8	1-Fluoro-2-methoxybenzene	234.15	427.65	1548.917	1.496917
321-38-0	1-Fluoronaphthalene	259.15	486.15	1132.22	1.59392
321-60-8	2-Fluoro-1,1'-biphenyl	346.65	521.15	1245.225	
321-98-2	d-Ephedrine	313.15	498.15		
32161-06-1	1-Acetyl-4-piperidinone		491.15	1146.25	1.50262
3217-86-5	N-Propylpropanamide	427.15	488.15	898.525	
3218-02-8	Cyclohexanemethanamine		435.15	872.5	1.46302
3221-61-2	2-Methyloctane	192.85	416.15	709.525	1.40312
32222-06-3	1,25-Dihydroxycholecalciferol	388.15			
3229-00-3	1,3-Dibromo-2,2-bis(bromomethyl)propane	433.44	578.65	2596.15	
323-09-1	2-Fluoronaphthalene	331.15	485.15		
32315-10-9	Bis(trichloromethyl) carbonate	352.15	476.15	1629.08	
3232-84-6	Urazole				
3234-28-4	Dodecyloxirane			845	1.44082
3234-49-9	1,2-Dibromopentane		452.15	1668.18	
3234-54-6	Vinyl trans-2-butenoate				
32360-05-7	Octadecyl methacrylate			880.25	1.42925
3238-38-8	2,3,4,6-Tetramethylphenol	353.15	523.15		
3238-40-2	2,5-Furandicarboxylic acid	615.15		1740.02	
32388-22-0	trans-4-Bromocyclohexanol	354.65			
324-74-3	4-Fluoro-1,1'-biphenyl	347.35	526.15	1247.25	
3240-09-3	5-Methyl-5-hexen-2-one		423.15	846.02	1.43482
3240-34-4	Phenyliodine diacetate	434.15			
3240-94-6	N-(2-Chloroethyl)morpholine				
3244-88-0	Acid Fuchsin				
3244-90-4	Tetrapropyl thiodiphosphate			1122.5	1.471021
32449-92-6	D-Glucuronic acid γ-lactone	450.65		1762	
3248-93-9	Magenta base				
32511-34-5	Bornylamine	436.15			
3252-43-5	Dibromoacetonitrile		442.15	2369.2	1.53932
3253-39-2	2,2-Bis(4-hydroxyphenyl)propane dimethacrylate	346.15			
3253-41-6	Pentaerythritol tetramethacrylate	326.65			
3254-63-5	Dimethyl p-(methylthio)phenyl phosphate			1273.21	
3254-93-1	5,5-Diphenyl-4-imidazolidinone	456.15			
3256-88-0	2-Methyl-5-phenylpyridine			1059.025	1.605525
32598-13-3	3,3',4',4'-Tetrachlorobiphenyl	453.15			
326-06-7	4,4,4-Trifluoro-1-phenyl-1,3-butanedione	312.15	497.15		
326-56-7	Methyl 1,3-benzodioxole-5-carboxylate	326.15			
326-62-5	2-Fluorobenzeneacetonitrile		505.15	1059.25	1.50092
326-91-0	4,4,4-Trifluoro-1-(2-thienyl)-1,3-butanedione	315.95			
32620-08-9	trans-1-Bromo-1-butene	172.85	368.15	1320.915	1.45272
3264-82-2	Nickel bis(2,4-pentanedioate)	503.15			
32665-23-9	Isopropyl 3-methylbutanoate		420.15	853.817	1.39602
3268-49-3	3-(Methylthio)propanal				
3268-87-9	Octachlorodibenzo-p-dioxin	605.15			
327-54-8	1,2,4,5-Tetrafluorobenzene	277.03	363.35	1425.52	1.40752
327-57-1	L-Norleucine				
327-92-4	1,5-Difluoro-2,4-dinitrobenzene	348.65			
327-98-0	Trichloronate			1365.2	
3274-29-1	2-Ethylheptanoic acid				1.425527
32768-54-0	2,3-Dichlorotoluene	279.15	480.65	1245.82	1.55112
3277-26-7	1,1,3,3-Tetramethyldisiloxane		344.15	756.2	1.37002
3279-26-3	Methyl phosphorodichloridite	182.15	366.15	1406	1.47402
3279-27-4	2-(1,1-Dimethylpropyl)phenol				
328-38-1	D-Leucine	566.15			
328-39-2	DL-Leucine	566.15		1293.18	
328-42-7	Oxaloacetic acid				
328-50-7	2-Oxoglutaric acid	389.15			
328-74-5	3,5-Bis(trifluoromethyl)aniline			1487.25	1.43352
328-84-7	3,4-Dichlorobenzotrifluoride		448.15	1472.925	
32809-16-8	Procymidone	438.35		1452.25	
3282-30-2	2,2-Dimethylpropanoyl chloride		377.15	1003.2	1.41392
3283-12-3	Dimethylphosphinic acid	365.15	650.15		
32830-97-0	1-Chloro-3-pentanone				1.43612
32854-75-4	Lappaconitine	490.65			
3287-99-8	Benzenemethanamine, hydrochloride	531.45			
3288-04-8	2-Methoxyphenyl isothiocyanate		537.15	1187.82	1.64582
3289-28-9	Ethyl cyclohexanecarboxylate		469.15	936.22	1.450115
329-01-1	1-Isocyanato-3-(trifluoromethyl)benzene			1345.52	1.46902
329-71-5	2,5-Dinitrophenol	378.75			
329-98-6	Benzenemethanesulfonyl fluoride	365.15			
3290-92-4	Tris(2-methyl-2-propenoyl)-2-ethyl-2-hydroxymethyl-1,3-propanediol				1.47025
3296-05-7	1-Azido-4-chlorobenzene	293.15		1263.425	
3296-90-0	2,2-Bis(bromomethyl)-1,3-propanediol	386.15			
32986-56-4	Tobramycin				
330-13-2	4-Nitrophenyl phosphate	428.15			
330-54-1	Diuron	430.15			
330-55-2	Linuron	366.05			
3302-10-1	3,5,5-Trimethylhexanoic acid				
33021-02-2	tert-Butyl isobutyl ether		386.05		
33069-62-4	Taxol	488.15			
33089-61-1	Amitraz	359.15		1128.2	
331-39-5	3-(3,4-Dihydroxyphenyl)-2-propenoic acid				
3313-26-6	cis-Thiothixene	421.15			
33146-45-1	2,6-Dichlorobiphenyl	307.85			
3319-15-1	4-Methoxy-α-methylbenzenemethanol		530.15	1079.42	1.531025
332-77-4	2,5-Dihydro-2,5-dimethoxyfuran		434.15	1073.25	1.43392
332-80-9	L-1-Methylhistidine	522.15			
3320-83-0	1-Chloro-2-isocyanatobenzene	303.65	474.05		
3320-86-3	1-Isocyanato-2-nitrobenzene	314.15			
3320-87-4	1-Isocyanato-3-nitrobenzene	324.15			
3321-03-7	N-Glycyl-L-phenylalanine	540.15			
33229-34-4	HC Blue No. 2	383.15			
3324-58-1	2,4,6-Trinitrophenol, sodium salt	543.55			
33245-39-5	Fluchloralin	320.85			
33284-53-6	2,3,4,5-Tetrachlorobiphenyl	363.85			
3329-48-4	3,5-Dimethyl-1-hexen-3-ol		419.65	838.22	1.43422
3329-56-4	Butoxyacetylene		377.15	820.02	1.4067
3329-91-7	Dioscorine	307.15			
333-18-6	1,2-Ethanediamine, dihydrochloride				1.633
333-41-5	Diazinon			1108.82	1.49222
333-49-3	4-Amino-2(1H)-pyrimidinethione				
333-93-7	1,4-Butanediamine dihydrochloride				