CASRN	Chemical	Tm	Tb	rho
12039-19-9	Yttrium sulfide	2198.15		3870
12039-35-9	Zinc antimonide	838.15		6330
12039-52-0	Thallium selenide (TlSe)	603.15		
12039-55-3	Tantalum(IV) selenide			6700
12039-76-8	Vanadium silicide (V3Si)	2208.15		5700
12039-79-1	Tantalum silicide	2473.15		9140
12039-80-4	Terbium silicide			6660
12039-83-7	Titanium silicide	1773.15		4000
12039-87-1	Vanadium silicide [VSi2]			4420
12039-88-2	Tungsten silicide [WSi2]	2433.15		9300
12039-89-3	Ytterbium silicide			7540
12039-90-6	Zirconium silicide	1893.15		4880
12039-95-1	Tungsten silicide [W5Si3]	2593.15		14400
12040-00-5	Samarium(III) telluride			7310
12040-02-7	Tin(II) telluride	1079.15		6500
12040-08-3	Strontium telluride			4830
12041-50-8	Aluminum diboride			3190
12041-54-2	Aluminum dodecaboride	2343.15		2550
12042-68-1	Calcium aluminate	1878.15		2980
12042-78-3	Calcium aluminate (β form)	1808.15		3040
12043-29-7	Aluminum telluride	1168.15		4500
12044-16-5	Iron arsenide	1303.15		7850
12044-42-7	Cobalt arsenide [CoAs2]			7200
12044-49-4	Magnesium arsenide	1473.15		3150
12044-54-1	Arsenic(III) telluride	648.15		6500
12045-01-1	Cobalt boride (Co2B)	1553.15		8100
12045-15-7	Manganese boride (MnB)	2163.15		6450
12045-16-8	Manganese boride (Mn2B)	1853.15		7200
12045-19-1	Niobium boride (NbB)	2543.15		7500
12045-27-1	Vanadium boride (VB)	2523.15		
12045-63-5	Titanium boride	3193.15		4380
12045-64-6	Zirconium boride	3323.15		6170
12045-87-3	Sodium tetraborate tetrahydrate			1950
12045-88-4	Sodium tetraborate pentahydrate			1880
12046-08-1	Barium hexaboride	2343.15		4360
12046-54-7	Strontium hexaboride	2508.15		3390
12047-27-7	Barium titanate [BaTiO3]	1898.15		6020
12047-79-9	Barium nitride			4780
12048-50-9	Bismuth tetroxide	578.15		5600
12048-51-0	Bismuth titanate			7850
12049-50-2	Calcium titanate	2253.15		3980
12052-42-5	Cobalt antimonide	1475.15		8800
12053-12-2	Chromium antimonide	1383.15		7110
12053-13-3	Chromium selenide	1773.15		6100
12053-26-8	Magnesium chromite	2663.15		4400
12053-27-9	Chromium nitride (Cr2N)	1923.15		6800
12053-39-3	Chromium(III) telluride	1573.15		7000
12054-48-7	Nickel(II) hydroxide			4100
12054-85-2	Ammonium molybdate(VI) tetrahydrate			2498
12055-23-1	Hafnium(IV) oxide	3073.15	5673.15	9680
12055-62-8	Holmium oxide	2688.15	4173.15	8410
12056-90-5	Lanthanum silicide	1793.15		5000
12057-24-8	Lithium oxide	1711.15		2013
12057-71-5	Magnesium nitride			2710
12057-74-8	Magnesium phosphide			2060
12057-75-9	Magnesium antimonide	1518.15		3990
12057-92-0	Manganese(VII) oxide	279.05		2400
12058-18-3	Molybdenum(IV) selenide			6900
12058-20-7	Molybdenum(IV) telluride			7700
12059-14-2	Nickel silicide (Ni2Si)	1528.15		7400
12059-95-9	Plutonium(IV) oxide	2663.15		11500
12060-00-3	Lead(II) titanate			7900
12060-01-4	Lead(II) zirconate			8000
12060-08-1	Scandium oxide	2762.15		3864
12060-58-1	Samarium(III) oxide	2608.15	4053.15	7600
12060-59-2	Strontium titanate	2353.15		5100
12061-16-4	Erbium oxide	2691.15	4193.15	8640
12062-24-7	Copper(II) hexafluorosilicate tetrahydrate			2560
12063-56-8	Yttrium iron oxide	1828.15		
12063-98-8	Gallium phosphide	1730.15		4138
12064-03-8	Gallium antimonide	985.15		5613.7
12064-62-9	Gadolinium(III) oxide	2698.15	4173.15	7410
12065-10-0	Germanium(II) selenide	948.15		5600
12065-11-1	Germanium(IV) selenide			4560
12065-65-5	Titanium(III,IV) oxide	2050.15		4240
12065-68-8	Lead(II) tantalate			7900
12066-83-0	Praseodymium silicide	1985.15		5460
12067-00-4	Rhenium(IV) telluride			8500
12067-22-0	Samarium(III) sulfide	1993.15		5870
12067-46-8	Tungsten(IV) selenide			9200
12067-54-8	Thorium silicide	2123.15		7900
12067-66-2	Tantalum(IV) telluride			9400
12067-76-4	Tungsten(IV) telluride	1293.15		9430
12067-99-1	Phosphotungstic acid	362.15		
12068-40-5	Lithium aluminum silicate	1703.15		3188
12068-49-4	Iron(II) aluminate			4300
12068-51-8	Magnesium aluminate	2378.15		3550
12068-69-8	Bismuth selenide			7500
12068-90-5	Mercury(II) telluride	946.15		8630
12069-00-0	Lead(II) selenide	1351.15		8100
12069-32-8	Boron carbide	2623.15		2500
12069-69-1	Copper(II) carbonate hydroxide			4000
12069-85-1	Hafnium carbide	3273.15		12200
12069-89-5	Molybdenum carbide (Mo2C)	2960.15		9180
12069-94-2	Niobium carbide (NbC)	3881.15	4573.15	7820
12070-06-3	Tantalum carbide	4153.15	5053.15	14300
12070-07-4	Tantalum carbide (Ta2C)	3600.15		15100
12070-08-5	Titanium carbide	3340.15		4930
12070-09-6	Uranium carbide	3063.15		
12070-10-9	Vanadium carbide (VC)	3083.15		5770
12070-12-1	Tungsten carbide	3058.15		15600
12070-13-2	Tungsten carbide (W2C)	3073.15		14800
12071-15-7	Lanthanum carbide	2633.15		5290
12071-29-3	Strontium carbide			3190
12071-31-7	Thorium dicarbide	2923.15		9000
12071-33-9	Uranium carbide [UC2]	2623.15	4643.15	11300
12071-35-1	Yttrium carbide	2673.15		4130
12076-62-9	Uranium carbide [U2C3]			12700
12088-65-2	Iron dodecacarbonyl	413.15		2000
121012-90-6	Calcium hexafluoro-2,4-pentanedioate	408.15		
12115-63-8	Cerium carbide	1778.15		6900
12116-66-4	Hafnocene dichloride	508.15		
12124-97-9	Ammonium bromide			2429
12124-99-1	Ammonium hydrogen sulfide			1170
12125-01-8	Ammonium fluoride	511.15		1015
12125-02-9	Ammonium chloride			1519
12125-08-5	Ammonium hexachloroosmate(IV)			2930
12125-09-6	Phosphonium iodide	291.65	335.65	2860
12125-22-3	Palladium(II) sulfide			6700
12125-25-6	Lutetium nitride			11600
12125-63-2	Iron(II) telluride	1187.15		6800
12133-07-2	Dysprosium silicide	1823.15		5200
12133-10-7	Dysprosium(III) sulfide			6080
12134-02-0	Cobalt phosphide	1659.15		6400
12134-22-4	Cesium trioxide	673.15		4250
12134-75-7	Gadolinium silicide	1813.15		5900
12134-77-9	Gadolinium(III) sulfide			6100
12136-24-2	Holmium silicide			7100
12136-42-4	Iridium(III) sulfide			10200
12136-45-7	Potassium oxide	1013.15		2350
12136-58-2	Lithium sulfide	1645.15		1640
12136-78-6	Molybdenum silicide [MoSi2]	2173.15		6200
12136-97-9	Niobium(IV) sulfide			4400
12137-12-1	Nickel(II,III) sulfide	1268.15		4770
12137-20-1	Titanium(II) oxide	2043.15	3500.15	4950
12137-25-6	Rubidium superoxide	813.15		3000
12137-27-8	Rhodium(IV) oxide			7200
12137-83-6	Platinum silicide	1502.15		12400
12138-07-7	Thorium(IV) sulfide	2178.15		7300
12138-09-9	Tungsten(IV) sulfide			7600
12138-11-3	Terbium(III) sulfide			6350
12138-17-9	Vanadium(V) sulfide			3000
12138-28-2	Strontium silicide	1373.15		3350
12139-93-4	Cobalt(II) stannate			6300
12140-41-9	Iron(II) tantalate			7330
12141-45-6	Aluminum silicate	2089.15		3250
12142-33-5	Potassium stannate trihydrate			3200
12143-72-5	Tantalum(IV) sulfide			6860
12143-96-3	Magnesium carbonate dihydroxide trihydrate			2040
12159-07-8	Copper silicide	1098.15		
12159-43-2	Dysprosium(III) telluride	1823.15		
12159-66-9	Erbium sulfide	2003.15		6070
12160-99-5	Gadolinium(III) telluride	1528.15		7700
12162-21-9	Hafnium(IV) selenide			7460
12162-59-3	Holmium sulfide			5920
12163-00-7	Lithium manganate			3900
12163-20-1	Lutetium sulfide			6260
12163-22-3	Lutetium telluride			7800
12163-69-8	Molybdenum phosphide			7340
12164-94-2	Ammonium azide	433.15		1346
12165-05-8	Rhenium(V) oxide			7000
12165-69-4	Phosphorus(III) sulfide	563.15	763.15	
12166-29-9	Scandium sulfide	2048.15		2910
12166-44-8	Scandium telluride			5290
12167-74-7	Calcium hydroxide phosphate			3155
12168-52-4	Iron(II) titanate	1743.15		4720
12168-85-3	Calcium oxide silicate	2423.15		
12183-80-1	Aluminum silicate			3145
12186-97-9	Yttrium antimonide	2583.15		5970
12187-14-3	Cadmium niobate	1683.15		6280
12188-41-9	Titanium(IV) oxide (brookite)			4170
12201-89-7	Nickel silicide [NiSi2]	1266.15		4830
12211-52-8	Ammonium cyanide			1100
12214-16-3	Cesium sulfide	793.15		
12228-50-1	Manganese boride [MnB2]	2100.15		5300
12229-63-9	Thorium boride	2723.15		6990
12230-71-6	Barium hydroxide octahydrate			2180
12233-56-6	Bismuth germanium oxide	1317.15		
12254-64-7	Americium(III) oxide			11770
12254-82-9	Cobalt arsenic sulfide			6100
12254-85-2	Chromium arsenide			7040
12255-48-0	Yttrium arsenide			5590
12256-04-1	Cobalt arsenide [CoAs3]	1215.15		6840
12266-65-8	Manganese carbide	1793.15		6890
12279-90-2	Arsenic sulfide	580.15	838.15	3500
12280-52-3	Cesium hydrogen fluoride	443.15		3860
12280-64-7	Rubidium hydrogen fluoride	461.15		3300
12286-33-8	Tin triphosphide	823.15		5200
12291-65-5	Calcium hexaborate pentahydrate			2420
12294-01-8	Yttrium phosphide			4400
12300-22-0	Samarium silicide			5140
12310-43-9	Dysprosium boride	2773.15		6980
12310-44-0	Erbium boride	2723.15		7000
12322-34-8	Antimony arsenide	953.15		6000
12323-03-4	Barium sodium niobate	1710.15		5400
12323-19-2	Bismuth antimonide	748.15		
12325-59-6	Hafnium phosphide			9780
12326-21-5	Uranium(VI) oxide monohydrate			7050
12333-54-9	Manganese phosphide (Mn2P)	1600.15		6000
12340-14-6	Xenon tetroxide	237.25		
12345-14-1	Barium chromate(V)			5250
12399-08-5	Iodine tetroxide	403.15		4200
124-38-9	Carbon dioxide			1.799
12401-56-8	Hafnium silicide	1973.15		7600
12419-43-1	Tin(II) hexafluorozirconate			4210
12429-94-6	Beryllium boride [BeB6]	2343.15		
12434-24-1	Europium silicide	1773.15		5460
12440-00-5	Tetraphosphorus(III) hexoxide	296.95	448.55	
12442-63-6	Dichlorine hexoxide	276.65	473.15	
12504-41-5	Silicon monosulfide	1363.15	1213.15	1850
12513-27-8	Zinc borate hemiheptahydrate	1253.15		4220
12536-51-5	Beryllium boride (Be2B)	1793.15		
12536-52-6	Beryllium boride (Be4B)	1433.15		
12536-65-1	Zinc borate pentahydrate			3640
12640-47-0	Cobalt(II) tungstate			7800
12650-28-1	Barium disilicate	1693.15		3700
12672-79-6	Barium aluminide	1370.15		
12688-52-7	Lutetium boride	2873.15		7000
127-08-2	Potassium acetate	582.15		1570
127-09-3	Sodium acetate	601.35		1528
127-95-7	Potassium hydrogen oxalate hemihydrate			2090
1271-19-8	Titanocene dichloride	562.15		1600
1271-27-8	Manganocene	446.15		
1271-28-9	Nickelocene	446.15		
1273-81-0	Osmocene	502.15		
1273-98-9	Neodymium(III) tris(cyclopentadienyl)	653.15		
1277-43-6	Cobaltocene	446.15		
1277-47-0	Vanadocene	440.15		
12770-26-2	Hafnium hydride			11400
1291-32-3	Zirconocene dichloride	521.15		
1299-86-1	Aluminum carbide	2373.15		2360
13007-92-6	Chromium carbonyl			1770
1301-96-8	Silver(II) oxide			7500
13011-54-6	Sodium ammonium phosphate tetrahydrate			1540
1302-01-8	Silver subfluoride			8600
1302-09-6	Silver(I) selenide	1153.15		8216
1302-42-7	Sodium aluminate	1923.15		4630
1302-52-9	Beryllium aluminum metasilicate			2640
1302-76-7	Aluminum silicate			3680
1302-81-4	Aluminum sulfide	1373.15		2020
1302-82-5	Aluminum selenide	1233.15		3437
1302-88-1	Magnesium aluminum silicate			2600
1302-93-8	Aluminum silicate	2023.15		3170
1303-00-0	Gallium arsenide	1511.15		5317.6
1303-11-3	Indium arsenide	1215.15		5670
1303-28-2	Arsenic(V) oxide	1003.15		4320
1303-33-9	Arsenic(III) sulfide	585.15	980.15	3460
1303-36-2	Arsenic(III) selenide	650.15		4750
1303-60-2	Gold(I) sulfide			11000
1303-62-4	Gold(III) selenide			4650
1303-86-2	Boron oxide	723.15		2550
1303-96-4	Sodium tetraborate decahydrate			1730
1304-28-5	Barium oxide	2246.15		5720
1304-29-6	Barium peroxide			4960
1304-39-8	Barium selenide	2053.15		5020
1304-40-1	Barium silicide	1453.15		
1304-54-7	Beryllium nitride	2473.15		2710
1304-56-9	Beryllium oxide	2851.15		3010
1304-76-3	Bismuth oxide	1098.15	2163.15	8900
1304-82-1	Bismuth telluride	853.15		7740
1304-85-4	Bismuth subnitrate			4928
1305-62-0	Calcium hydroxide			2200
1305-78-8	Calcium oxide	2886.15		3340
1305-79-9	Calcium peroxide			2900
1305-84-6	Calcium selenide			3800
1305-99-3	Calcium phosphide	1873.15		2510
1306-19-0	Cadmium oxide			8150
1306-23-6	Cadmium sulfide	1753.15		4826
1306-24-7	Cadmium selenide	1513.15		5810
1306-25-8	Cadmium telluride	1315.15		6200
1306-38-3	Cerium(IV) oxide	2753.15		7216
1307-86-4	Cobalt(III) hydroxide			4000
1307-96-6	Cobalt(II) oxide	2103.15		6440
1307-99-9	Cobalt(II) selenide	1328.15		7650
1308-04-9	Cobalt(III) oxide			5180
1308-06-1	Cobalt(II,III) oxide			6110
1308-31-2	Iron(II) chromite			5000
1308-38-9	Chromium(III) oxide	2705.15	3273.15	5220
1308-56-1	Copper(II) ferrous sulfide	1223.15		4200
1308-80-1	Copper nitride			5840
1308-87-8	Dysprosium(III) oxide	2681.15	4173.15	7810
1308-96-9	Europium(III) oxide	2623.15	4063.15	7420
13083-04-0	Cerium(III) ammonium nitrate tetrahydrate	347.15		
1309-33-7	Iron(III) hydroxide			3120
1309-37-1	Iron(III) oxide	1812.15		5250
1309-42-8	Magnesium hydroxide	623.15		2370
1309-48-4	Magnesium oxide	3098.15	3873.15	3600
1309-60-0	Lead(IV) oxide			9640
1309-64-4	Antimony(III) oxide (valentinite)	928.15	1698.15	5700
131-74-8	Ammonium picrate			1720
1310-32-3	Iron(II) selenide			6700
1310-43-6	Iron phosphide (Fe2P)	1643.15		6800
1310-52-7	Magnesium germanide	1390.15		3090
1310-53-8	Germanium(IV) oxide	1389.15		4250
1310-58-3	Potassium hydroxide	679.15	1600.15	2044
1310-61-8	Potassium hydrogen sulfide	723.15		1690
1310-65-2	Lithium hydroxide	746.15	1899.15	1450
1310-66-3	Lithium hydroxide monohydrate			1510
1310-73-2	Sodium hydroxide	596.15	1661.15	2130
1310-82-3	Rubidium hydroxide	658.15		3200
1311-11-1	Lead(II) oxide hydrate			7410
1311-93-9	Ammonium tungstate(VI) pentahydrate			2300
1312-41-0	Indium antimonide	797.15		5774.7
1312-42-1	Indium(III) selenide	933.15		5800
1312-43-2	Indium(III) oxide	2185.15		7180
1312-45-4	Indium(III) telluride	940.15		5750
1312-73-8	Potassium sulfide	1221.15		1740
1312-74-9	Potassium selenide	1073.15		2290
1312-81-8	Lanthanum oxide	2577.15	3893.15	6510
13126-12-0	Rubidium nitrate	583.15		3110
1313-04-8	Magnesium selenide			4200
1313-08-2	Magnesium stannide	1044.15		3600
1313-13-9	Manganese(IV) oxide			5080
1313-22-0	Manganese(II) selenide	1733.15		5450
1313-27-5	Molybdenum(VI) oxide	1075.15	1428.15	4700
1313-30-0	Sodium molybdophosphate			2830
1313-49-1	Zinc nitride			6220
1313-59-3	Sodium oxide	1407.15		2270
1313-60-6	Sodium peroxide	948.15		2805
1313-82-2	Sodium sulfide	1445.15		1856
1313-83-3	Sodium sulfide pentahydrate			1580
1313-84-4	Sodium sulfide nonahydrate			1430
1313-85-5	Sodium selenide			2620
1313-96-8	Niobium(V) oxide	1785.15		4470
1313-97-9	Neodymium(III) oxide	2506.15	4033.15	7240
1313-99-1	Nickel(II) oxide	2230.15		6720
1314-05-2	Nickel(II) selenide	1253.15		7200
1314-08-5	Palladium(II) oxide			8300
1314-11-0	Strontium oxide	2804.15		5100
1314-12-1	Thallium(I) oxide	852.15	1353.15	9520
1314-13-2	Zinc oxide	2247.15		5600
1314-15-4	Platinum(IV) oxide	723.15		11800
1314-18-7	Strontium peroxide			4780
1314-20-1	Thorium(IV) oxide	3623.15	4673.15	10000
1314-22-3	Zinc peroxide			1570
1314-23-4	Zirconium(IV) oxide	2983.15	4573.15	5680
1314-24-5	Phosphorus(III) oxide	296.95	446.15	2130
1314-27-8	Lead(II,IV) oxide			10050
1314-28-9	Rhenium(VI) oxide			6900
1314-32-5	Thallium(III) oxide	1107.15		10200
1314-34-7	Vanadium(III) oxide	2230.15	3273.15	4870
1314-35-8	Tungsten(VI) oxide	1746.15	1973.15	7200
1314-36-9	Yttrium oxide	2712.15		5030
1314-37-0	Ytterbium(III) oxide	2628.15	4343.15	9200
1314-41-6	Lead(II,II,IV) oxide	1103.15		8920
1314-56-3	Phosphorus(V) oxide	835.15	878.15	2300
1314-60-9	Antimony(V) oxide			3780
1314-61-0	Tantalum(V) oxide	2148.15		8240
1314-62-1	Vanadium(V) oxide	954.15	2023.15	3350
1314-68-7	Rhenium(VII) oxide	600.15	633.15	6100
1314-80-3	Phosphorus(V) sulfide	558.15	788.15	2030
1314-84-7	Zinc phosphide [Zn3P2]	1433.15		4550
1314-85-8	Phosphorus sesquisulfide	446.15	680.15	2030
1314-86-9	Phosphorus(III) selenide	518.15	653.15	1310
1314-87-0	Lead(II) sulfide	1386.15		7600
1314-91-6	Lead(II) telluride	1197.15		8164
1314-95-0	Tin(II) sulfide	1154.15	1483.15	5080
1314-96-1	Strontium sulfide	2499.15		3700
1314-97-2	Thallium(I) sulfide	730.15	1640.15	8390
1314-98-3	Zinc sulfide (wurtzite)	2100.15		4090
1315-01-1	Tin(IV) sulfide			4500
1315-03-3	Vanadium(III) sulfide			4700
1315-04-4	Antimony(V) sulfide			4120
1315-05-5	Antimony(III) selenide	884.15		5810
1315-06-6	Tin(II) selenide	1134.15		6180
1315-07-7	Strontium selenide	1873.15		4540
1315-09-9	Zinc selenide			5650
1315-11-3	Zinc telluride	1568.15		5900
1317-33-5	Molybdenum(IV) sulfide	2023.15		5060
1317-34-6	Manganese(III) oxide			5000
1317-35-7	Manganese(II,III) oxide	1840.15		4840
1317-36-8	Lead(II) oxide (massicot)	1160.15		9640
1317-37-9	Iron(II) sulfide	1461.15		4700
1317-38-0	Copper(II) oxide	1500.15		6310
1317-39-1	Copper(I) oxide	1517.15		6000
1317-40-4	Copper(II) sulfide			4760
1317-41-5	Copper(II) selenide			5990
1317-42-6	Cobalt(II) sulfide	1390.15		5450
1317-61-9	Iron(II,III) oxide	1870.15		5170
1317-66-4	Iron disulfide			5020
1317-70-0	Titanium(IV) oxide (anatase)	1833.15		3900
1317-80-2	Titanium(IV) oxide (rutile)	2185.15	3273.15	4170
13172-31-1	Sulfur bromide [SSBr2]	227.15		2630
1318-23-6	Aluminum oxyhydroxide			3070
1319-46-6	Lead(II) carbonate, basic			6500
13205-44-2	Borane carbonyl	136.15	209.15	1.71
13255-26-0	Barium metasilicate	1878.15		4400
13255-48-6	Hydrazine acetate	373.15		
13268-42-3	Ammonium iron(III) oxalate trihydrate			1780
1327-44-2	Potassium aluminum silicate			2560
1327-50-0	Antimony(III) telluride	893.15		6500
1327-53-3	Arsenic(III) oxide (arsenolite)	547.15	733.15	3860
13283-01-7	Tungsten(VI) chloride	555.15	610.15	3520
1330-43-4	Sodium tetraborate	1016.15	1848.15	2400
1332-14-5	Copper(II) sulfate, basic			3880
1332-52-1	Beryllium basic acetate	558.15	603.15	1250
1332-58-7	Aluminum silicate dihydrate			2590
1332-63-4	Manganese(III) hydroxide			4300
1332-71-4	Cobalt(III) sulfide			4800
1332-81-6	Antimony(III,V) oxide			6640
13320-71-3	Molybdenum(IV) chloride	590.15		
13327-32-7	Beryllium hydroxide (α)			1920
1333-74-0	Hydrogen	13.99	20.271	0.082
1333-82-0	Chromium(VI) oxide	470.15		2700
1333-83-1	Sodium hydrogen fluoride			2080
1335-26-8	Magnesium peroxide			3000
1335-31-5	Mercury(II) oxycyanide			4440
133578-89-9	Vanadyl selenite hydrate			3506
133863-98-6	Molybdenum(VI) metaphosphate			3280
13400-13-0	Cesium fluoride	976.15		4640
1341-49-7	Ammonium hydrogen fluoride	398.15		1500
13423-61-5	Magnesium chromate heptahydrate			1695
13424-46-9	Lead(II) azide			4700
1344-28-1	Aluminum oxide (α)	2327.15	3250.15	3990
1344-43-0	Manganese(II) oxide	2115.15		5370
1344-48-5	Mercury(II) sulfide (black)	1093.15		7700
1344-54-3	Titanium(III) oxide	2115.15		4486
1344-57-6	Uranium(IV) oxide	3120.15		10970
1344-58-7	Uranium(VI) oxide			7300
1344-59-8	Uranium(V,VI) oxide			8380
1344-95-2	Calcium metasilicate	1813.15		2920
13444-75-2	Mercury(II) chromate			6060
13444-87-6	Nitrosyl bromide	217.15	273.15	4.492
13444-90-1	Nitryl chloride	128.15	258.15	3.33
13444-94-5	Palladium(II) bromide			5200
13444-96-7	Palladium(II) fluoride	1225.15		5760
13445-50-6	Diphosphine	174.15		
13445-58-4	Phosphorus(V) dibromide trifluoride	253.15		
13446-03-2	Manganese(II) bromide	971.15		4385
13446-08-7	Ammonium fluorosulfonate	518.15		
13446-09-8	Ammonium iodate	423.15		3300
13446-10-1	Ammonium permanganate			2220
13446-18-9	Magnesium nitrate hexahydrate			1460
13446-19-0	Magnesium perchlorate hexahydrate			1980
13446-23-6	Magnesium phosphate octahydrate			2170
13446-24-7	Magnesium pyrophosphate	1668.15		2560
13446-28-1	Magnesium selenate hexahydrate			1928
13446-29-2	Magnesium sulfite hexahydrate			1720
13446-30-5	Magnesium thiosulfate hexahydrate			1820
13446-34-9	Manganese(II) chloride tetrahydrate	360.65		1913
13446-48-5	Ammonium nitrite			1690
13446-49-6	Potassium molybdate	1192.15		2300
13446-53-2	Magnesium bromide hexahydrate			2000
13446-56-5	Molybdenum(II) bromide			4880
13446-57-6	Molybdenum(III) bromide			4890
13446-70-3	Rubidium bromate	703.15		3680
13446-71-4	Rubidium chlorate	597.15		3190
13446-72-5	Rubidium chromate			3518
13446-73-6	Rubidium dichromate			3100
13446-74-7	Rubidium fluoride	1068.15	1683.15	3200
13446-75-8	Rubidium hydride	858.15		2600
13446-76-9	Rubidium iodate			4330
1345-04-6	Antimony(III) sulfide	823.15		4562
1345-07-9	Bismuth sulfide	1050.15		6780
1345-13-7	Cerium(III) oxide	2523.15	4003.15	6200
1345-25-1	Iron(II) oxide	1650.15		6000
13450-87-8	Gadolinium(III) sulfate octahydrate			4140
13450-88-9	Gallium(III) bromide	396.15	552.15	3690
13450-90-3	Gallium(III) chloride	351.05	474.15	2470
13450-91-4	Gallium(III) iodide	485.15	613.15	4500
13450-92-5	Germanium(IV) bromide	299.25	459.5	3132
13450-95-8	Germanium(IV) iodide	419.15	621.15	4322