CASRN	Name	Tm	Tb	rho	RI
4972-29-6	Benzenesulfinyl chloride	311.15		1346.925	1.347025
49763-65-7	4-Pentylbenzoyl chloride			1036.25	1.53002
498-00-0	4-Hydroxy-3-methoxybenzenemethanol	388.15			
498-02-2	1-(4-Hydroxy-3-methoxyphenyl)ethanone	388.15	570.15		
498-15-7	3-Carene, (+)		444.15	854.93	1.4693
498-23-7	cis-2-Methyl-2-butenedioic acid	356.35		1617.25	
498-24-8	trans-1-Propene-1,2-dicarboxylic acid	477.65		1466.2	
498-59-9	Djenkolic acid				
498-60-2	3-Furancarboxaldehyde		418.15	1110.2	1.49452
498-62-4	3-Thiophenecarboxaldehyde				1.58552
498-66-8	Bicyclo[2.2.1]hept-2-ene	319.35	368.84		
498-67-9	(Dichlorofluoromethyl)benzene	246.35	452.15	1313.811	1.518011
498-94-2	4-Piperidinecarboxylic acid	609.15			
498-95-3	3-Piperidinecarboxylic acid				
498-96-4	1,2,5,6-Tetrahydro-3-pyridinecarboxylic acid				
4981-66-2	9,10-Anthracenediol	453.15			
4984-01-4	3,7-Dimethyl-1-octene		428.15	739.62	1.42122
4985-46-0	Tyrosineamide	426.65			
4985-70-0	1-Chloroanthracene	356.65		1170.71	1.69591
4985-85-7	N,N-Bis(2-hydroxyethyl)-1,3-propanediamine				
4986-89-4	2,2-Bis(hydroxymethyl)-1,3-propanediol, tetra(2-propenoyl) ester	290.45		1185.25	
499-04-7	Arecaidine				
499-06-9	3,5-Dimethylbenzoic acid	444.25	548.15		
499-40-1	α-Isomaltose	393.15			
499-44-5	2-Hydroxy-4-isopropyl-2,4,6-cycloheptatrien-1-one	324.15		1060.665	
499-75-2	5-Isopropyl-2-methylphenol	275.65	514.65	977.22	1.52302
499-80-9	2,4-Pyridinedicarboxylic acid	522.15		942.25	
499-81-0	3,5-Pyridinedicarboxylic acid	597.15			
499-83-2	2,6-Pyridinedicarboxylic acid	525.15			
499-89-8	Thujic acid	361.65			
4998-76-9	Cyclohexylamine hydrochloride	479.65			
50-00-0	Formaldehyde	181.15	254.05		
50-01-1	Guanidine monohydrochloride	457.15		1354.2	
50-02-2	Dexamethasone	535.15			
50-03-3	Hydrocortisone 21-acetate			1289.2	
50-06-6	Phenobarbital	449.15			
50-07-7	Mitomycin C	633.15			
50-10-2	Oxyphenonium bromide	464.65			
50-11-3	Metharbital	423.65			
50-12-4	Mephenytoin	409.15			
50-14-6	Vitamin D2	389.65			
50-18-0	Cyclophosphamide	323.55			
50-22-6	Corticosterone	454.15			
50-23-7	Hydrocortisone	493.15			
50-24-8	Prednisolone	508.15			
50-27-1	Estra-1,3,5(10)-triene-3,16,17-triol, (16α,17β)			1272.5	
50-28-2	Estra-1,3,5(10)-triene-3,17-diol (17β)	453.15			
50-29-3	1,1,1-Trichloro-2,2-bis(4-chlorophenyl)ethane	382.15	533.15		
50-30-6	2,6-Dichlorobenzoic acid	415.15			
50-31-7	2,3,6-Trichlorobenzoic acid	402.65			
50-32-8	Benzo[a]pyrene	452.15			
50-33-9	Phenylbutazone	377.15			
50-34-0	Propantheline bromide	433.15			
50-35-1	Thalidomide	543.15			
50-36-2	Cocaine	371.15			1.502298
50-37-3	Lysergide	355.15			
50-42-0	Adiphenine hydrochloride	386.65			
50-44-2	1,7-Dihydro-6H-purine-6-thione				
50-47-5	Desipramine				
50-48-6	Amitriptyline	469.15			
50-49-7	Imipramine				
50-50-0	Estra-1,3,5(10)-triene-3,17-diol 3-benzoate, (17β)	471.15			
50-52-2	Thioridazine	346.15			
50-53-3	Chlorpromazine				
50-55-5	Reserpine	537.65			
50-56-6	Oxytocin				
50-59-9	Cephaloridine				
50-60-2	Phentolamine	448.15			
50-65-7	Niclosamide	500.15			
50-67-9	5-Hydroxytryptamine				
50-69-1	D-Ribose	361.15			
50-70-4	D-Glucitol	370.15		1489.2	1.33302
50-71-5	2,4,5,6(1H,3H)-Pyrimidinetetrone				
50-76-0	Dactinomycin				
50-78-2	2-(Acetyloxy)benzoic acid	409.15			
50-79-3	2,5-Dichlorobenzoic acid	427.15	574.15		
50-81-7	L-Ascorbic acid	464.15		1652.5	
50-84-0	2,4-Dichlorobenzoic acid	437.35			
50-85-1	2-Hydroxy-4-methylbenzoic acid	450.95			
50-89-5	Thymidine	460.15			
50-91-9	2'-Deoxy-5-fluorouridine	423.15			
50-98-6	Ephedrine hydrochloride	492.15		1020.82	
500-05-0	2-Oxo-2H-pyran-5-carboxylic acid				
500-22-1	3-Pyridinecarboxaldehyde			1139.425	
500-28-7	Chlorthion	294.15		1437.2	1.56612
500-38-9	Nordihydroguaiaretic acid	458.65			
500-44-7	Mimosine				
500-55-0	Apoatropine	335.15			
500-98-1	(N-Phenylacetyl)glycine	416.15			
500-99-2	3,5-Dimethoxyphenol	310.15			
5003-71-4	3-Bromopropylamine hydrobromide	444.65			
5006-66-6	1,6-Dihydro-6-oxo-3-pyridinecarboxylic acid				
5008-52-6	Luciculine	422.15			
5008-73-1	Isopropyl propyl sulfide		405.15	826.92	
5009-27-8	Cyclopropanone				
501-15-5	4-[2-(Methylamino)ethyl]-1,2-benzenediol	461.65			
501-24-6	3-Pentadecylphenol	323.15			
501-30-4	5-Hydroxy-2-(hydroxymethyl)-4H-pyran-4-one	426.65			
501-52-0	Benzenepropanoic acid	321.55	557.15	1071.249	
501-53-1	Benzyl chloroformate			1195.25	1.51902
501-65-5	Diphenylacetylene	335.15	573.15	965.71	
501-92-8	4-Allylphenol	288.95	511.15	1020.315	1.544118
501-94-0	4-Hydroxybenzeneethanol	363.15	583.15		
501-97-3	4-Hydroxybenzenepropanoic acid	402.45			
502-39-6	Methylmercuric dicyanamide	430.15			
502-41-0	Cycloheptanol	280.3	458.15	955.42	1.407052
502-42-1	Cycloheptanone		453.55	950.82	1.46082
502-44-3	2-Oxepanone	272.13	488.15	1076.12	1.46112
502-47-6	3,7-Dimethyl-6-octenoic acid		530.15	923.421	
502-49-8	Cyclooctanone	317.35	474.55	958.12	1.46942
502-56-7	5-Nonanone	269.31	461.55	821.72	1.41952
502-59-0	N-Isopentyl-6-methyl-2-heptanamine				
502-61-4	α-Farnesene			841.02	1.48362
502-65-8	ψ,ψ-Carotene	450.15			
502-72-7	Cyclopentadecanone	338.35		889.525	1.46376
502-97-6	1,4-Dioxane-2,5-dione	356.15			
502-99-8	3,7-Dimethyl-1,3,7-octatriene			800.02	1.48622
5022-29-7	N-Ethyl-1H-isoindole-1,3(2H)-dione	352.15	558.65		
5026-76-6	6-Methyl-1-heptene		386.15	707.925	1.40702
5029-67-4	2-Iodopyridine			1928.25	1.63662
503-01-5	N,6-Dimethyl-5-hepten-2-amine		450.15		
503-17-3	2-Butyne	240.95	300.25	691.02	1.39212
503-29-7	Azetidine	203.15	331.15	843.62	1.428725
503-30-0	Oxetane	176.15	320.75	893.025	1.39612
503-38-8	Diphosgene	216.15	401.15	1652.514	1.456622
503-40-2	Methanedisulfonic acid	371.15			
503-60-6	1-Chloro-3-methyl-2-butene		382.15	927.32	1.44852
503-64-0	cis-2-Butenoic acid	288.15	442.15	1026.72	1.44502
503-66-2	3-Hydroxypropanoic acid				1.44892
503-74-2	3-Methylbutanoic acid	243.55	449.65	931.2	1.40332
503-87-7	2-Thioxo-4-imidazolidinone				
503-93-5	2,6,6-Trimethyl-2,4-cycloheptadien-1-one		483.15	949.02	1.50872
504-02-9	1,3-Cyclohexanedione	378.15		1086.191	1.4576102
504-03-0	2,6-Dimethylpiperidine		401.15	815.825	1.43772
504-07-4	Dihydro-2,4(1H,3H)-pyrimidinedione	548.65			
504-15-4	5-Methyl-1,3-benzenediol	380.15	560.15	1290.4	
504-17-6	Dihydro-2-thioxo-4,6(1H,5H)-pyrimidinedione				
504-20-1	Phorone	298.95	470.15	885.02	1.49982
504-24-5	4-Pyridinamine	432.15	546.15		
504-29-0	2-Pyridinamine	331.35			
504-31-4	2H-Pyran-2-one	281.65	480.65	1200.2	1.527025
504-53-0	18-Pentatriacontanone	361.95		793.95	
504-57-4	10-Nonadecanone	329.95	607.15		
504-61-0	trans-2-Buten-1-ol	243.15	394.35	852.12	1.42882
504-63-2	1,3-Propanediol	245.55	487.85	1053.82	1.43982
504-64-3	Carbon suboxide	160.65	279.95	1114	1.4538
504-66-5	Dicyanamide				
504-78-9	Thiazolidine		437.65	1131.25	1.5512
504-88-1	3-Nitropropanoic acid	335.15		1592	
5042-55-7	5-Nitro-1,3-benzenediamine	416.15			
50471-44-8	Vinclozolin	383.65		1510	
505-20-4	1,2-Dithiane	305.65			1.598125
505-22-6	1,3-Dioxane	228.15	378.15	1028.625	1.41652
505-23-7	1,3-Dithiane	327.15			1.598125
505-29-3	1,4-Dithiane	384.55	472.65		
505-32-8	3,7,11,15-Tetramethyl-1-hexadecen-3-ol			851.92	1.45712
505-34-0	Cheirolin	320.65			
505-48-6	Octanedioic acid	415.45	618.65		
505-52-2	Tridecanedioic acid	387.45			
505-54-4	Hexadecanedioic acid	395.15			
505-60-2	Bis(2-chloroethyl) sulfide	286.65	471.15	1274.12	1.53132
505-65-7	1,3-Dioxepane				
505-66-8	Hexahydro-1H-1,4-diazepine	313.65	442.15		
505-84-0	Dipropoxymethane	175.85	413.65	834.52	1.393919
5051-62-7	Guanabenz				
5053-43-0	2-Methylpyrimidine	269.15	411.15		
5057-98-7	cis-1,2-Cyclopentanediol	303.15			
5057-99-8	trans-1,2-Cyclopentanediol	319.15	499.15		
50594-66-6	Acifluorfen	437.45			
506-03-6	3-(Hexadecyloxy)-1,2-propanediol, (S)-	337.15			
506-12-7	Heptadecanoic acid	334.23	635.15	853.26	1.43426
506-13-8	16-Hydroxyhexadecanoic acid	369.65			
506-21-8	trans,trans-9,12-Octadecadienoic acid	301.65			
506-23-0	cis,trans,trans-9,11,13-Octadecatrienoic acid	322.15		902.85	1.51125
506-25-2	Isanic acid	312.65		930.945	1.491485
506-30-9	Eicosanoic acid	348.21	673.15	824.01	1.4251
506-31-0	trans-9-Eicosenoic acid	327.15			
506-32-1	5,8,11,14-Eicosatetraenoic acid, (all-cis)	235.15		908.22	1.48242
506-33-2	trans-13-Docosenoic acid	335.05		858.557	1.43471
506-37-6	cis-15-Tetracosenoic acid	316.15			
506-46-7	Hexacosanoic acid	360.85		819.81	1.43011
506-48-9	Octacosanoic acid	364.05		819.11	1.43131
506-50-3	Triacontanoic acid	366.75			1.43231
506-51-4	1-Tetracosanol	350.15			
506-52-5	1-Hexacosanol	353.15			
506-59-2	Dimethylamine hydrochloride	444.15			
506-68-3	Cyanogen bromide	325.15	334.65	2015.2	
506-77-4	Cyanogen chloride	266.6	286.15	1186.2	
506-78-5	Cyanogen iodide	419.85		2841.8	
506-80-9	Carbon diselenide	229.55	398.65	2682.32	1.84542
506-82-1	Dimethyl cadmium	270.48	378.65	1984.618	1.5488
506-85-4	Fulminic acid				
506-89-8	Urea hydrochloride				
506-93-4	Guanidine mononitrate	487.65			
506-96-7	Acetyl bromide	176.65	347.15	1662.516	1.44862
5061-21-2	3-Bromo-4,5-dihydro-2(3H)-furanone			1820	1.50592
50623-57-9	Butyl nonanoate	235.15		852.025	1.426225
50679-08-8	Terfenadine	423.35			
507-02-8	Acetyl iodide		382.15	2067.32	1.54912
507-09-5	Thioacetic acid	256.15	366.15	1064.2	1.46482
507-19-7	2-Bromo-2-methylpropane	256.35	346.45	1427.82	1.42782
507-20-0	2-Chloro-2-methylpropane	247.55	324.05	842.02	1.38572
507-25-5	Tetraiodomethane	444.15		4232	
507-32-4	Ethanearsonic acid	372.65			
507-36-8	2-Bromo-2-methylbutane		378.15	1197.18	1.4421
507-40-4	tert-Butyl hypochlorite		350.65	958.318	1.4032
507-42-6	Bromal hydrate	319.15		2566.14	
507-45-9	2,3-Dichloro-2-methylbutane		402.15	1069.615	1.445018
507-47-1	1-Amino-2,2,2-trichloroethanol	346.15			
507-55-1	1,3-Dichloro-1,1,2,2,3-pentafluoropropane		328.15	1552.5	
507-60-8	Scilliroside	442.15			
5076-20-0	Tetramethyloxirane		363.55	815.616	1.398416
5077-67-8	1-Hydroxy-2-butanone		433.15	1027.22	1.41892
50782-69-9	O-Ethyl S-[2-(diisopropylamino)ethyl] methylphosphonothioate				
508-02-1	Oleanolic acid				
508-32-7	Tricyclene	340.65	425.65	866.88	1.42968
508-44-1	Anemonin	431.15			
508-54-3	Hydroxycodeinone				
508-65-6	Germine	493.15			
50876-33-0	1,1,3,3-Tetramethylcyclopentane	184.85	391.15	746.925	1.41252
5089-70-3	Triethoxy(3-chloropropyl)silane		124.15		
509-14-8	Tetranitromethane	287.05	398.75	1638.02	1.43842
509-15-9	Gelsemine	451.15			
509-20-6	Aconine	405.15			
51-03-6	Piperonyl butoxide			1052.5	
51-06-9	Procainamide	320.15			
51-12-7	Nialamide	427.15			
51-17-2	1H-Benzimidazole	445.35			
51-18-3	2,4,6-Tris(1-aziridinyl)-1,3,5-triazine				
51-20-7	5-Bromouracil	583.15			
51-21-8	5-Fluorouracil	557.15	642.15		
51-26-3	3,3',5-Triiodothyropropanoic acid	473.15			
51-28-5	2,4-Dinitrophenol	387.15		1683.24	
51-34-3	Scopolamine				
51-35-4	trans-4-Hydroxy-L-proline	547.15			
51-36-5	3,5-Dichlorobenzoic acid	460.55			
51-41-2	Norepinephrine				
51-43-4	Epinephrine	484.65			
51-44-5	3,4-Dichlorobenzoic acid	477.65			
51-45-6	Histamine	356.15			
51-48-9	L-Thyroxine	508.15			
51-50-3	N-(2-Chloroethyl)dibenzylamine				
51-52-5	2,3-Dihydro-6-propyl-2-thioxo-4(1H)-pyrimidinone	492.15			
51-55-8	Atropine	391.65			
51-56-9	Homatropine hydrobromide				
51-57-0	Methamphetamine hydrochloride	447.15			
51-61-6	Dopamine				
51-63-8	Dextroamphetamine sulfate	573.15		1152.5	
51-64-9	1-Phenyl-2-propylamine, (S)-	300.65	476.65	949.15	1.47042
51-66-1	N-(4-Methoxyphenyl)acetamide	400.35			
51-67-2	4-(2-Aminoethyl)phenol	437.65			
51-75-2	2-Chloro-N-(2-chloroethyl)-N-methylethanamine	213.15			
51-79-6	Ethyl carbamate	321.4	458.15	986.221	1.414451
51-80-9	N,N,N',N'-Tetramethylmethanediamine		356.65	749.118	
51-83-2	Carbachol	481.15			
510-15-6	Chlorobenzilate	312.15		1281.62	
510-20-3	Diethylpropanedioic acid				
510-35-0	Santonic acid	444.15			
510-90-7	Buthalital sodium				
5103-42-4	Hydrindantin				
511-07-9	Ergocristinine				
511-08-0	Ergocristine				
511-09-1	Ergocryptine				
511-10-4	Ergocryptinine				
511-18-2	24-Norcholan-23-oic acid, (5β)	450.15			
511-20-6	Ergostane, (5α)	358.15			
511-21-7	Ergostane, (5β)	337.15			
511-34-2	Spirostan-2,3,15-triol, (2α,3β,5α,15β,25R)-	554.65			
511-45-5	Pridinol	393.15			
511-70-6	2-Bromo-2-ethylbutanamide	340.15			
511-96-6	Spirostan-2,3-diol, (2α,3β,5α,25R)-	544.65			
512-04-9	Spirost-5-en-3-ol, (3β,25R)-	478.65			
512-12-9	5,5-Dipropyl-2,4-oxazolidinedione	315.65			
512-13-0	α-Fenchol, (-)-	314.65		903.484	
512-16-3	α-Ethyl-1-hydroxycyclohexaneacetic acid	354.65		1001.018	1.468018
512-48-1	2,2-Diethyl-4-pentenamide	348.65			
512-56-1	Trimethyl phosphate	227.15	470.35	1214.42	1.39672
512-69-6	Raffinose	353.15		1465.25	
512-85-6	Ascaridole	276.45		1010.32	1.47692
51207-31-9	2,3,7,8-Tetrachlorodibenzofuran	500.15			
51218-45-2	Metolachlor			1122	
51235-04-2	Hexazinone	390.35		1250	
5124-30-1	Methylenebis(4-cyclohexylisocyanate)			1066	1.49702
51282-49-6	Methyl 5-chloro-2-nitrobenzoate	321.65		1453.18	
513-02-0	Triisopropyl phosphate		492.15	986.72	1.40572
513-08-6	Tripropyl phosphate		525.15	1012.12	1.41652
513-12-2	2-(Ethylsulfonyl)ethanol				
513-31-5	2,3-Dibromo-1-propene		415.15	2034.525	1.541625
513-35-9	2-Methyl-2-butene	139.43	311.65	662.32	1.38742
513-36-0	1-Chloro-2-methylpropane	142.85	342.15	877.32	1.39842
513-37-1	1-Chloro-2-methylpropene		341.15	918.62	1.42212
513-38-2	1-Iodo-2-methylpropane		394.15	1603.52	1.49592
513-42-8	2-Methyl-2-propenol		387.65	851.52	1.42552
513-44-0	2-Methyl-1-propanethiol	128.31	361.65	835.72	1.43872
513-81-5	2,3-Dimethyl-1,3-butadiene	197.15	342.15	722.225	1.43942
513-88-2	1,1-Dichloroacetone		393.15	1304.18	
513-92-8	Tetraiodoethene	460.15		2983.2	
513-96-2	3,3,3-Trichloro-2-hydroxypropanenitrile	334.15			
51308-54-4	Buthiobate	305.15		1086.525	1.59626
51308-99-7	9-Chloro-1-nonanol	301.15			1.45752
51309-10-5	10-Chloro-1-decanol	285.65		963.025	1.45782
5131-58-8	4-Nitro-1,3-benzenediamine	434.15			
5131-60-2	4-Chloro-1,3-benzenediamine	364.15			
5131-66-8	1-Butoxy-2-propanol		445.15	882.2	1.41682
51338-27-3	Diclofop-methyl	315.25			
5137-45-1	1-Ethoxy-2-methoxyethane		361.15	846.025	1.384325
514-10-3	Abietic acid	446.65			
514-12-5	α,α'-Dibromo-d-camphor	334.15		1854.21	
514-73-8	Dithiazanine iodide				
514-92-1	3',4'-Didehydro-β,ψ-caroten-16'-oic acid	484.15			
5144-89-8	1,10-Phenanthroline monohydrate	366.15			
5145-99-3	Ethyl isopropyl sulfide	150.95	380.45	824.62	
51481-61-9	Cimetidine	415.15			
515-25-3	Betonicine				
515-40-2	(2-Chloro-1,1-dimethylethyl)benzene		500.15	1047.2	1.52472
515-42-4	Sodium benzenesulfonate	573.15			
515-46-8	Ethyl benzenesulfonate			1216.72	1.50812
515-49-1	Sulfathiourea	455.15			
515-59-3	Sulfamethylthiazole	510.15			
515-82-2	N-(2,2,2-Trichloro-1-hydroxyethyl)formamide	393.15			
515-83-3	2,2,2-Trichloro-1-ethoxyethanol	329.65	388.65	1143.4	
515-84-4	Ethyl trichloroacetate		440.15	1383.62	1.45052
515-94-6	3-Aminoalanine	383.15			
515-96-8	Aminooxoacetohydrazide				
5150-93-6	Butyl hydrogen succinate	281.75		1073.22	1.43602
51524-84-6	3-(Methylamino)benzoic acid	400.15			
5153-67-3	trans-(2-Nitrovinyl)benzene	330.15	528.15		
5159-41-1	2-Iodobenzenemethanol	365.15			1.63492
516-05-2	Methylmalonic acid	407.15		1455.2	
516-12-1	1-Iodo-2,5-pyrrolidinedione	473.65		2245.25	
516-54-1	3-Hydroxypregnan-20-one, (3α,5α)	450.15			
516-55-2	3-Hydroxypregnan-20-one, (3β,5α)	443.15			
516-58-5	Allopregnan-20β-ol-3-one	468.15			
516-78-9	Ergost-7-en-3-ol, (3β,5α)	419.15			
516-85-8	Ergosta-5,7,9(11),22-tetraen-3-ol, (3β,22E)-	419.15			
516-95-0	Cholestan-3-ol, (3α,5α)	458.65			
5161-13-7	cis-Tetrahydro-2,5-dimethylthiophene	184.15	415.65	922.22	1.47992
5162-03-8	2-Chlorobenzophenone	327.15	603.15		
5162-44-7	4-Bromo-1-butene		371.65	1323.02	1.46222
5162-48-1	2,2,4-Trimethyl-3-pentanol	260.15	424.15	829.72	1.42882
51630-58-1	Fenvalerate			1152.5	
51632-16-7	1-(Bromomethyl)-3-phenoxybenzene				
5166-53-0	5-Methyl-3-hexen-2-one			854.928	1.439522
5169-78-8	Tipepidine	338.15			
517-04-4	Estra-1,3,5(10)-triene-3,17-diol, (8α,17β)	454.15			
517-06-6	8-Isoestrone	527.15			
517-09-9	3-Hydroxyestra-1,3,5,7,9-pentaen-17-one	531.65			
517-10-2	Cholest-4-en-3-ol, (3β)	405.15			
517-18-0	Methallenestril	412.15			
517-22-6	3-Ethyl-2,4-dimethyl-1H-pyrrole	273.15	470.15	913.2	1.49612
517-23-7	3-Acetyldihydro-2(3H)-furanone			1184.62	1.45852
517-25-9	Trinitromethane	299.15		1479.2	1.445124
517-28-2	Hematoxylin	413.15			
517-51-1	5,6,11,12-Tetraphenylnaphthacene	605.65			
517-60-2	Benzenehexacarboxylic acid				
517-66-8	Dicentrine				
517-82-8	Echinochrome A				
517-92-0	Chrysamminic acid				
517-97-5	Tsuduranine	477.15			
51707-55-2	Thidiazuron				
5171-84-6	3,3,4,4-Tetramethylhexane		443.15	778.925	1.43682
51756-08-2	Methyl 2-ethylacetoacetate		455.15	995.14	
518-05-8	1,8-Naphthalenedicarboxylic acid	533.15			
518-17-2	Evodiamine	301.15			
518-44-5	2-(3,6-Dihydroxy-9H-xanthen-9-yl)benzoic acid	399.15			
518-47-8	Fluorescein sodium				
518-61-6	10-[(Dimethylamino)acetyl]-10H-phenothiazine	417.65			
518-69-4	Corydaline	409.15			
518-75-2	Citrinin				
518-77-4	Corybulbine	510.65			
518-82-1	1,3,8-Trihydroxy-6-methyl-9,10-anthracenedione	530.15			
5183-77-7	trans-1,2-Dibromocyclohexane, (±)-	271.15		1775.92	1.544519
519-02-8	Matridin-15-one				1.528625
519-04-0	Anhalonine	359.15			
519-05-1	6-Formyl-2,3-dimethoxybenzoic acid	423.15			
519-09-5	Benzoylecgonine	468.15			
519-34-6	Maclurin	495.65			
519-37-9	Etofylline	431.15			
519-44-8	2,4-Dinitro-1,3-benzenediol	420.45			
519-62-0	β-Chlorophyll	398.15			
519-65-3	Dioxypyramidon	378.65			
519-72-2	N,N-Diethyl-α-phenylbenzenemethanamine	331.65			
519-73-3	Triphenylmethane	365.15	632.15	1014.99	1.583999
519-87-9	N,N-Diphenylacetamide	374.55			
519-95-9	Florantyrone	481.15			
5192-03-0	1H-Indol-5-amine	405.15			
5194-50-3	trans,cis-2,4-Hexadiene	177.05	356.15	718.525	1.45602
5194-51-4	trans,trans-2,4-Hexadiene	228.25	355.55	710.125	1.45102
52-01-7	Spironolactone		407.15		
52-24-4	Triethylenethiophosphoramide	324.65			
52-28-8	Codeine phosphate				
52-31-3	Cyclobarbital	446.15			
52-39-1	Aldosterone	439.65			
52-43-7	5,5-Diallyl-2,4,6(1H,3H,5H)-pyrimidinetrione	445.15			
52-46-0	Apholate	421.15			
52-49-3	Trihexyphenidyl hydrochloride	531.65			
52-51-7	2-Bromo-2-nitro-1,3-propanediol	404.65			
52-52-8	1-Aminocyclopentanecarboxylic acid				
52-53-9	Verapamil				1.544825
52-67-5	3-Mercapto-D-valine	471.65			
52-68-6	Trichlorfon	355.35		1732	
52-85-7	Famphur	330.15			
52-86-8	Haloperidol	424.65			
52-89-1	L-Cysteine, hydrochloride				
52-90-4	L-Cysteine				
520-03-6	2-Phenyl-1H-isoindole-1,3(2H)-dione	478.15			
520-18-3	Kaempferol	550.15			
520-26-3	Hesperidin	535.15			
520-33-2	Hesperetin	499.15			
520-36-5	Apigenin	620.65			
520-45-6	3-Acetyl-6-methyl-2H-pyran-2,4(3H)-dione	382.15	543.15		
520-68-3	Echimidine				
520-69-4	3-Ethyl-2,4,5-trimethylpyrrole	339.65	487.15		
520-85-4	Medroxyprogesterone	487.65			
5205-34-5	5-Decanol	281.85	489.15	824.2	1.43332
521-04-0	Stigmasta-5,7-dien-3-ol, (3β)	417.65			
521-11-9	17-Hydroxy-17-methylandrostan-3-one, (5α,17β)	465.65			
521-12-0	Dromostanolone propanoate	403.15			
521-18-6	17-Hydroxyandrostan-3-one, (5α,17β)	454.15			
521-24-4	Sodium β-naphthoquinone-4-sulfonate				
521-31-3	5-Amino-2,3-dihydro-1,4-phthalazinedione	603.65			
521-35-7	Cannabinol	350.15			
521-74-4	5,7-Dibromo-8-quinolinol	469.15			
521-85-7	Corycavamine	422.15			
52152-71-3	2-Iodobutane, (±)-	168.95	391.15	1592.02	1.49912
5216-25-1	1-Chloro-4-(trichloromethyl)benzene		518.15	1446.32	
522-12-3	Quercitrin	443.15			
522-27-0	Di-2-furanylethanedione dioxime	440.15			
522-57-6	Papaveraldine	483.65			
522-66-7	Hydroquinine	445.65			
522-75-8	Δ2,2'(3H,3'H)-Bibenzo[b]thiophene-3,3'-dione	632.15			
5221-53-4	Dimethirimol	375.15			
52217-02-4	3-Hydroxy-2-butanone, (±)-	288.15	421.15	1004.42	1.41712
5223-59-6	1,2-Diphenylbutane		564.15	967.32	1.55542
523-27-3	9,10-Dibromoanthracene	499.15			
523-44-4	Orange I				
523-47-7	1,2,4a,5,8,8a-Hexahydro-4,7-dimethyl-1-isopropylnaphthalene, [1S-(1α,4aβ,8aα)]		547.15	923.02	1.50592
523-50-2	Isopsoralen	412.15			
523-80-8	Apiole	302.35	567.15	1015.2	1.53602
52315-07-8	Cypermethrin	343.15		1252	