CASRN	Name	Tm	Tb	rho	RI
542-91-6	Diethylsilane	138.85	330.15	684.32	1.39212
542-92-7	1,3-Cyclopentadiene	176.61	314.15	802.12	1.44402
5421-04-5	Isopentyl α-hydroxybenzeneacetate				
5424-21-5	2,4-Dichloro-6-methylpyrimidine	319.65	492.15		
543-18-0	2-Guanidinoethanesulfonic acid	500.15			
543-20-4	Butanedioyl dichloride	289.85	463.15	1374.82	1.46832
543-21-5	2-Butynediamide				
543-24-8	N-Acetylglycine	479.15			
543-27-1	Isobutyl chlorocarbonate		401.95	1042.618	1.407118
543-28-2	Isobutyl carbamate	340.15	480.15		1.409876
543-29-3	Isobutyl nitrate		396.55	1015.22	1.40282
543-38-4	Canavanine	445.15			
543-59-9	1-Chloropentane	174.15	381.05	882.02	1.41262
543-67-9	Propyl nitrite		317.15	886.2	1.36042
543-75-9	2,3-Dihydro-1,4-dioxin		367.25	1083.62	1.43722
543-83-9	(3-Methyl-2-butenyl)guanidine	335.65			
543-87-3	3-Methylbutyl nitrate		421.15	996.22	1.412221
5432-85-9	4-Isopropylcyclohexanone		487.15	909.93	1.455225
5434-27-5	1,3-Dibromo-2,2-dimethylpropane		458.15	1677.52	1.509
5436-21-5	4,4-Dimethoxy-2-butanone				
5437-98-9	N-(4-Methoxyphenyl)-3-oxobutanamide	390.45			
544-00-3	Diisopentylamine	229.15	460.15	767.221	1.42352
544-01-4	Diisopentyl ether		445.15	777.72	1.40852
544-02-5	Diisopentyl sulfide	198.55	484.15	832.32	1.45202
544-10-5	1-Chlorohexane	179.15	408.15	873.825	1.42002
544-13-8	Pentanedinitrile	244.25	559.15	991.115	1.42952
544-16-1	Butyl nitrite		351.15	911.425	1.37622
544-25-2	1,3,5-Cycloheptatriene	197.97	389.45	887.519	1.53432
544-35-4	Ethyl cis,cis-9,12-octadecadienoate	218.15	624.15	886.52	
544-40-1	Dibutyl sulfide	198.18	441.15	838.62	1.45302
544-62-7	3-(Octadecyloxy)-1,2-propanediol	343.65			
544-63-8	Tetradecanoic acid	327.31	599.15	862.254	1.47237
544-73-0	trans,trans,trans-9,11,13-Octadecatrienoic acid	344.65		883.98	1.50008
544-76-3	Hexadecane	291.33	560.05	770.125	1.432925
544-77-4	1-Iodohexadecane	293.15	630.15	1121.325	1.47972
544-85-4	Dotriacontane	342.85	743.15	812.42	1.45502
544-97-8	Dimethyl zinc	230.14	316.15	1386.1	
5445-51-2	1,1-Cyclobutanedicarboxylic acid	431.15			
545-06-2	Trichloroacetonitrile	231.15	358.85	1440.325	1.44092
545-26-6	Gitoxigenin	507.15			
545-47-1	Lup-20(29)-en-3-ol, (3β)	489.15		945.7218	1.4910218
545-55-1	Triethylenephosphoramide	314.15			
545-93-7	5-(2-Bromoallyl)-5-isopropylbarbituric acid	454.15			
5451-52-5	Decyl formate		516.15		
5451-80-9	Heptyl pentanoate	226.75	514.15	862.32	1.425415
5451-92-3	Nonyl formate	240.15	489.15	860	1.42162
5452-35-7	Cycloheptanamine				1.47242
5452-37-9	Cyclooctanamine	225.15	463.15	928.25	1.48042
5452-75-5	Ethyl cyclohexylacetate		484.15	953.714	1.45114
54527-68-3	2-Chloroethyl acetoacetate		471.15	1205.521	1.44302
5453-80-5	Bicyclo[2.2.1]hept-5-ene-2-carboxaldehyde			1018.25	1.48932
54532-97-7	2-Butyl-1,1'-biphenyl	263.55	565.15	967.62	1.56042
5454-28-4	Butyl heptanoate	205.15	498.15	863.82	1.42042
5454-79-5	cis-3-Methylcyclohexanol, (±)-	267.65	441.15	915.52	1.47522
5454-83-1	Methyl 5-bromopentanoate			1363	1.46302
5459-58-5	Butyl cyanoacetate		504.15	1001.02	1.42002
5459-93-8	Cyclohexylethylamine		437.15	868	
546-06-5	Conessine	398.65			
546-43-0	Alantolactone	349.15	548.15		
546-45-2	2,4,6-Trimethyl-2,4,6-triphenylcyclotrisiloxane	373.15		1106.22	1.53972
546-56-5	Octaphenylcyclotetrasiloxane	473.65			
546-68-9	Tetraisopropyl titanate		500.65	971.12	
546-80-5	α-Thujone		494.15	910.925	1.449015
546-88-3	Acetohydroxamic acid	363.15			
546-97-4	Columbin	468.65			
54630-50-1	5-Methyl-2-heptanol	212.15	445.15	817.421	
54638-10-7	sec-Pentyl acetate, (R)-		415.15	880.318	1.40122
5466-84-2	5-Nitro-1,3-isobenzofurandione	388.15			
5468-37-1	α-Aminoacetophenone hydrochloride				
5469-69-2	6-Chloro-3-pyridazinamine	493.15			
547-25-1	Turanose	441.15			
547-44-4	Sulfanilylurea				
547-52-4	N4-Sulfanilylsulfanilamide	410.15			
547-58-0	Methyl Orange				
547-63-7	Methyl isobutanoate	188.55	365.15	890.62	1.38402
547-65-9	Dihydro-3-methylene-2(3H)-furanone			1120.62	1.46502
547-81-9	Estra-1,3,5(10)-triene-3,16,17-triol, (16β,17β)	563.15			
547-91-1	8-Hydroxy-7-iodo-5-quinolinesulfonic acid				
5470-18-8	2-Chloro-3-nitropyridine	377.15			
5471-51-2	4-(4-Hydroxyphenyl)-2-butanone	355.65			
54749-90-5	Chlorozotocin				
548-40-3	6,6',7-Trimethoxy-2,2'-dimethyloxyacanthan-12'-ol	489.65			
548-51-6	2-Hydroxy-6-methyl-3-isopropylbenzoic acid	400.15			
548-62-9	Crystal Violet				
548-73-2	Droperidol	419.15			
548-80-1	Chromotrope 2B	573.15			
548-84-5	Pyrvinium chloride				
548-93-6	2-Amino-3-hydroxybenzoic acid	526.65			
548-98-1	Cholane	363.15			
54819-86-2	Butyl 2-chloropropanoate		457.15	1025.32	1.42632
54827-17-7	3,3',5,5'-Tetramethyl-[1,1'-biphenyl]-4,4'-diamine	441.65			
54910-89-3	Fluoxetine				
55-10-7	α,4-Dihydroxy-3-methoxybenzeneacetic acid				
55-18-5	N-Nitrosodiethylamine		445.15	942.22	1.43862
55-21-0	Benzamide	401.15	579.15	1079.213	
55-22-1	4-Pyridinecarboxylic acid	591.15			
55-38-9	Fenthion	280.65		1246.2	
55-43-6	N-(2-Chloroethyl)dibenzylamine hydrochloride	467.15			
55-63-0	Trinitroglycerol	285.95		1593.12	1.478612
55-65-2	Guanethidine	499.15			
55-68-5	Phenylmercuric nitrate	454.15			
55-73-2	Bethanidine	469.15			
55-80-1	3-Methyl-4'-(dimethylamino)azobenzene	395.15			
55-81-2	4-Methoxybenzeneethanamine				1.53792
55-86-7	Bis(2-chloroethyl)methylamine hydrochloride	384.65			
55-91-4	Isoflurophate			1055.25	1.383025
55-98-1	1,4-Butanediol dimethylsulfonate	389.15			
550-10-7	Hydrocotarnine	329.15			
550-24-3	Embelin	415.65			
550-44-7	2-Methyl-1H-isoindole-1,3(2H)-dione	407.15	559.15		
550-60-7	1-Nitro-2-naphthol	377.15			
550-74-3	Picrolonic acid	389.15			
550-82-3	Resazurin				
550-97-0	1-Naphthyl 2-hydroxybenzoate	356.15			
550-99-2	Naphazoline hydrochloride				
5500-21-0	Cyclopropanecarbonitrile		408.15	894.62	1.42292
5502-88-5	4-Isopropyl-1-methylcyclohexene		443.15	845.715	1.47352
5503-12-8	4-(1-Methylvinyl)-1-cyclohexene-1-carboxaldehyde, (R)-		511.15	953.2	1.50582
55066-53-0	Ethyl cis-12-hydroxy-9-octadecenoate, (R)-			918.02	1.461822
5507-44-8	Vinyldiethoxymethylsilane		406.15	862.02	1.40012
55096-26-9	Nalmefene	462.15			
551-01-9	Plasmocid			1056.924	1.585524
551-06-4	1-Naphthyl isothiocyanate	331.15			
551-09-7	N-1-Naphthyl-1,2-ethanediamine			1114.25	1.664825
551-11-1	Prostaglandin F2α	303.15			
551-16-6	6-Aminopenicillanic acid	481.15			
551-62-2	1,2,3,4-Tetrafluorobenzene		367.45		1.40542
551-76-8	2,4,6-Trichloro-3-methylphenol	319.15	538.15		
551-77-9	2,3,6-Trichloro-4-methylphenol	339.65			
551-78-0	2,3,4-Trichloro-6-methylphenol	350.15			
551-84-8	D-Xylulose				
551-88-2	3-Nitropentane		427.15	957	
551-92-8	1,2-Dimethyl-5-nitro-1H-imidazole	411.65			
5510-99-6	2,6-Di-sec-butylphenol	231.15	530.65		1.50802
55156-16-6	3-Methyl-2-pentanone, (±)-		390.15	813.02	1.40022
552-16-9	2-Nitrobenzoic acid	420.15		1575.2	
552-22-7	Thymol iodide				
552-30-7	Trimellitic anhydride	435.15			
552-32-9	N-(2-Nitrophenyl)acetamide	366.15		1419.15	
552-41-0	1-(2-Hydroxy-4-methoxyphenyl)ethanone	325.65		1310.281	1.545281
552-45-4	1-(Chloromethyl)-2-methylbenzene		475.15	1063.25	1.541025
552-58-9	Eriodictyol				
552-59-0	Prunetin	512.65			
552-63-6	α-(Hydroxymethyl)benzeneacetic acid, (±)-	391.15			
552-70-5	9-Methyl-9-azabicyclo[3.3.1]nonan-3-one	327.15	519.15	1001.1	1.47601
552-72-7	Lobelanidine	423.15			
552-79-4	N-Methylephedrine, [R-(R*,S*)]	360.65			
552-82-9	Methyldiphenylamine	265.55	567.15	1047.62	1.61932
552-86-3	Furoin	408.15			
552-89-6	2-Nitrobenzaldehyde	316.65		1284.42	
552-94-3	2-Carboxyphenyl 2-hydroxybenzoate	420.15			
5522-43-0	1-Nitropyrene	425.15			
5524-05-0	2-Methyl-5-(1-methylethenyl)cyclohexanone, (2R-trans)-		494.65	928.19	1.4724
55282-16-1	5-Butyldocosane	481.15		805.82	1.45032
55283-68-6	Ethalfluralin	330.15			
55285-14-8	Carbosulfan		399.15	1056.2	
55290-64-7	Dimethipin	438.15			
553-03-7	3,4-Dihydro-2(1H)-quinolinone	436.65			
553-17-3	2-Methoxyphenol carbonate (2:1)	362.15			
553-19-5	Xanthyletin	404.65			
553-20-8	N-(5-Nitro-2-propoxyphenyl)acetamide	375.65			
553-24-2	Neutral Red				
553-26-4	4,4'-Bipyridine	377.55	578.15		
553-27-5	N,N-Bis(2-chloroethyl)aniline	318.15			
553-39-9	6-Hydroxy-2-naphthalenepropanoic acid	453.65			
553-60-6	Isopropyl 3-pyridinecarboxylate			1062.42	1.49262
553-68-4	Butethamine hydrochloride	467.15			
553-69-5	α-[(2-Pyridinylamino)methyl]benzenemethanol	356.65			
553-72-0	Zinc benzoate				
553-79-7	5-Nitro-2-propoxyaniline	322.15			
553-82-2	2,4-Dichloro-1-methoxybenzene	301.65	505.15		
553-86-6	2(3H)-Benzofuranone	323.15	522.15	1223.614	
553-90-2	Dimethyl oxalate	324.15	436.55	1171.66	1.37982
553-94-6	2-Bromo-1,4-dimethylbenzene	282.15	480.15	1358.218	1.551418
553-97-9	2-Methyl-2,5-cyclohexadiene-1,4-dione	341.15		1087.5	
55314-57-3	Ethyl 2-pentynoate			962.25	
55320-06-4	11-Decylheneicosane	282.35		811.62	1.45402
55335-06-3	Triclopyr	423.85			
5534-95-2	Pentagastrin				
5536-17-4	Vidarabine	530.15			
554-00-7	2,4-Dichloroaniline	336.15	518.15	1567.2	
554-01-8	4-Amino-5-methyl-2(1H)-pyrimidinone				
554-12-1	Methyl propanoate	185.65	351.75	915.02	1.37752
554-14-3	2-Methylthiophene	209.85	385.65	1019.32	1.52032
554-35-8	2-(β-D-Glucopyranosyloxy)-2-methylpropanenitrile	418.15			
554-57-4	Methazolamide				
554-68-7	Triethylamine hydrochloride			1068.921	
554-70-1	Triethylphosphine	185.15	402.15	800.619	1.45815
554-73-4	Orange IV				
554-84-7	3-Nitrophenol	368.15		1279.71	
554-91-6	β-Gentiobiose	465.15			
554-92-7	Trimethobenzamide hydrochloride	461.15			
554-95-0	1,3,5-Benzenetricarboxylic acid	653.15			
555-03-3	3-Nitroanisole	311.15	531.15	1373.18	
555-10-2	β-Phellandrene		450.15	852.02	1.47882
555-16-8	4-Nitrobenzaldehyde	378.15		1496.25	
555-21-5	4-Nitrobenzeneacetonitrile	390.15			
555-30-6	3-Hydroxy-α-methyl-L-tyrosine				
555-31-7	Aluminum isopropoxide	392.15			
555-43-1	Glycerol tristearate			855.99	1.43958
555-44-2	Glycerol tripalmitate	339.15	897.15	875.27	1.43818
555-45-3	Glycerol tritetradecanoate	330.15	858.15	884.86	1.44286
555-57-7	N-Methyl-N-2-propynylbenzenemethanamine			944.25	1.52132
555-59-9	cis-4-Oxo-4-(phenylamino)-2-butenoic acid			1418.3	
555-75-9	Aluminum ethanolate	413.15			
555-77-1	2,2',2''-Trichlorotriethylamine	271.15			
555-89-5	Bis(4-chlorophenoxy)methane	343.65			
5550-12-9	Guanosine 5'-monophosphate, disodium salt				
55505-26-5	8-Methyl-1-nonanol				
55512-33-9	Pyridate	300.15		1555.2	1.5682
556-08-1	4-(Acetylamino)benzoic acid	529.65			
556-10-5	(4-Nitrophenyl)urea	511.15			
556-18-3	4-Aminobenzaldehyde	344.65			
556-22-9	Glyodin			1035.2	
556-24-1	Methyl isopentanoate		389.15	880.82	1.39272
556-27-4	3-(Allylsulfinyl)-L-alanine, (S)-	438.15			
556-33-2	N-(N-Glycylglycyl)glycine				
556-50-3	N-Glycylglycine	493.15			
556-53-6	Propylamine hydrochloride	436.65			
556-56-9	3-Iodopropene	175.15	375.15	1848.12	1.554021
556-61-6	Methyl isothiocyanate	309.15	392.15	1069.137	1.5258
556-64-9	Methyl thiocyanate	270.65	406.05	1067.825	1.466925
556-67-2	Octamethylcyclotetrasiloxane	290.25	448.55	956.12	1.39682
556-69-4	Octadecamethyloctasiloxane	210.15		913.25	1.39702
556-82-1	3-Methyl-2-buten-1-ol		417.15	848.25	1.44122
556-88-7	Nitroguanidine	526.15			
556-89-8	Nitrourea	432.15			
556-90-1	2-Amino-4(5H)-thiazolone				
556-96-7	1-Bromo-3,5-dimethylbenzene		476.15	1362.2	1.546222
5560-69-0	Ethyl 3,6-di(tert-butyl)-1-naphthalenesulfonate				
557-00-6	Propyl 3-methylbutanoate		428.15	861.72	1.40312
557-04-0	Magnesium stearate	405.15			
557-11-9	Allylurea	358.15			
557-17-5	Methyl propyl ether		311.65	735.613	1.357925
557-20-0	Zinc diethyl	239.81	406.15	1206.52	1.49362
557-22-2	1,2-Dithiolane	350.15			
557-24-4	cis-4-Amino-4-oxo-2-butenoic acid	445.65			
557-25-5	Glycerol 1-butanoate		553.15	1129.18	1.45312
557-28-8	Zinc propanoate				
557-30-2	Ethanedial dioxime				
557-31-3	Allyl ethyl ether		338.15	765.12	1.38812
557-40-4	Diallyl ether	267.15	367.15	826.02	1.41632
557-59-5	Tetracosanoic acid	355.15		820.71	1.42871
557-61-9	1-Octacosanol	356.55			
557-66-4	Ethylamine hydrochloride	382.65		1216.02	
557-68-6	Bromoiodomethane		409.15	2926.17	1.64102
557-91-5	1,1-Dibromoethane	210.15	382.15	2055.52	1.51282
557-93-7	2-Bromopropene	147.15	322.15	1396.516	1.446716
557-98-2	2-Chloropropene	135.75	296.15	901.72	1.39732
557-99-3	Acetyl fluoride	189.15	295.15	1032.25	
55751-54-7	2-sec-Butylaniline			957.42	
558-13-4	Tetrabromomethane	363.15	462.65	2960.81	1.59421
558-17-8	2-Iodo-2-methylpropane	239.55	371.15	1571.25	1.49182
558-25-8	Methanesulfonyl fluoride		396.65		
558-30-5	2,2-Dimethyloxirane		324.15	811.22	1.371222
558-37-2	3,3-Dimethyl-1-butene	157.95	314.39	652.92	1.37632
558-43-0	2-Methyl-1,2-propanediol		450.15	1002.42	1.43502
5581-35-1	Amphecloral				1.53
5582-82-1	3-Methyl-3-heptanol	190.15	439.15	828.22	1.42792
5586-15-2	Di-2-naphthyl disulfide	412.65		1144.145	1.45552
5587-89-3	Iopodic acid	441.15			
5588-20-5	Chlordantoin				
5588-33-0	Mesoridazine				
5588-84-1	Triisopropyl vanadate				
559-70-6	Olean-12-en-3-ol, (3β)	470.15			
5593-70-4	Tetrabutyl titanate		565.55		
55944-70-2	7-Chloro-1-heptanol	284.15		999.815	1.453725
5598-13-0	Chlorpyrifos-methyl	319.15			
56-03-1	Biguanide	409.15			
56-04-2	Methylthiouracil				
56-05-3	4,6-Dichloro-2-pyrimidinamine	488.15			
56-12-2	4-Aminobutanoic acid				
56-17-7	Cystamine dihydrochloride				
56-18-8	N-(3-Aminopropyl)-1,3-propanediamine	268.05		938.25	1.48102
56-23-5	Tetrachloromethane	250.35	349.85	1594.02	1.46012
56-25-7	Cantharidin	491.15			
56-29-1	Hexobarbital	418.15			
56-33-7	1,1,3,3-Tetramethyl-1,3-diphenyldisiloxane	193.15	565.15	976.32	1.51762
56-34-8	Tetraethylammonium chloride				
56-35-9	Hexabutyldistannoxane	228.15		1172	1.487
56-36-0	(Acetyloxy)tributylstannane	357.85			
56-38-2	Parathion	279.25	648.15	1268.12	1.537025
56-40-6	Glycine			1161.2	
56-41-7	L-Alanine			1432.22	
56-45-1	L-Serine			1622	
56-49-5	1,2-Dihydro-3-methylbenz[j]aceanthrylene	451.15		1282	
56-53-1	trans-Diethylstilbestrol	445.15			
56-54-2	Quinidine	447.15			
56-55-3	Benz[a]anthracene	433.15	711.15		
56-57-5	4-Nitroquinoline 1-oxide	427.15			
56-65-5	Adenosine 5'-triphosphate				
56-72-4	Coumaphos	368.35		1474	
56-75-7	Chloramphenicol	423.15			
56-81-5	Glycerol	291.35	562.15	1261.32	1.47462
56-82-6	2,3-Dihydroxypropanal, (±)-	418.15		1453.18	
56-84-8	L-Aspartic acid	543.15		1660.313	
56-85-9	L-Glutamine	455.15			
56-86-0	L-Glutamic acid			1538.2	
56-87-1	L-Lysine				
56-89-3	L-Cystine			1677.25	
56-92-8	1H-Imidazole-4-ethanamine, dihydrochloride	524.45		1432	
56-93-9	Benzyltrimethylammonium chloride	516.15			
56-94-0	Demecarium bromide				
560-21-4	2,3,3-Trimethylpentane	171.95	387.85	726.22	1.40752
560-23-6	2,3,3-Trimethyl-1-pentene	204.15	381.15	730.825	1.41742
560-95-2	Bromotrinitromethane	291.15		2031.22	1.48082
56030-54-7	Sufentanil	369.75			
56053-84-0	Butyl thiophene-2-carboxylate				
56073-10-0	Brodifacoum	503.15			
561-07-9	Delphinine	472.15			
561-20-6	Cacotheline	573.15			
561-25-1	Dihydrothebaine	435.65			
561-27-3	Diacetylmorphine	446.15		1562.5	
561-83-1	Nealbarbital	429.15			
561-94-4	Ergosine				
56103-67-4	4-Methyl-2,6-di-tert-pentylphenol		556.15	931.25	1.49502
5617-41-4	Heptylcyclohexane	232.85	517.15	810.92	1.44842
5617-42-5	Heptylcyclopentane	212.15	497.15	801.02	1.44212
562-49-2	3,3-Dimethylpentane	138.75	359.15	693.62	1.39092
562-71-0	Suprasterol II	383.15			
562-74-3	1-Isopropyl-4-methyl-3-cyclohexen-1-ol		482.15	926.2	1.478519
56298-90-9	4-Methyl-2-heptanol	171.15	444.15	802.72	1.4242
563-03-1	2-Methoxyphenol phosphate (3:1)	364.15			
563-04-2	Tri-m-cresyl phosphate	298.65		1150.25	1.55752
563-12-2	Ethion	260.15		1222	
563-16-6	3,3-Dimethylhexane	146.95	385.05	710.02	1.40012
563-41-7	Semicarbazide hydrochloride				
563-43-9	Dichloroethylaluminum	305.15		1207	
563-45-1	3-Methyl-1-butene	104.74	293.25	621.325	1.36432
563-46-2	2-Methyl-1-butene	135.62	304.25	650.42	1.37782
563-47-3	3-Chloro-2-methylpropene		345.15	916.52	1.42912
563-52-0	3-Chloro-1-butene		337.15	897.82	1.41492
563-58-6	1,1-Dichloropropene		349.15	1186.425	1.443025
563-70-2	Bromonitromethane		422.15		1.48802
563-76-8	2-Bromopropanoyl bromide		426.15	2061.116	
563-78-0	2,3-Dimethyl-1-butene	115.88	328.74	680.32	1.39952
563-79-1	2,3-Dimethyl-2-butene	198.85	346.34	708.02	1.41222
563-80-4	3-Methyl-2-butanone	180.02	367.35	805.12	1.38802
563-83-7	2-Methylpropanamide	400.25	490.15	1013.2	
5633-20-5	Oxybutynin	387.15			
5634-39-9	2-(1-Iodoethyl)-1,3-dioxolane-4-methanol			1797	1.547
56392-17-7	Metoprolol tartrate	394.15			
564-02-3	2,2,3-Trimethylpentane	160.75	382.95	716.12	1.40302
564-04-5	2,2-Dimethyl-3-pentanone	228.15	398.15	812.52	1.40652
564-36-3	Ergocornine				
564-37-4	Ergocorninine				
564-87-4	11-cis-Retinal				
564-94-3	6,6-Dimethyl-2-norpinene-2-carboxaldehyde				
5648-29-3	Bis(ethoxymethyl) ether		409.15		
565-59-3	2,3-Dimethylpentane		362.95	690.825	1.389425
565-60-6	3-Methyl-2-pentanol		415.15	830.72	1.41822
565-62-8	3-Methyl-2-penten-4-one		411.15		1.45082
565-63-9	cis-2-Methyl-2-butenoic acid	318.65	458.15	983.449	1.443447
565-67-3	2-Methyl-3-pentanol		401.05	824.32	1.41752
565-69-5	2-Methyl-3-pentanone		391.15	814.18	1.39752
565-75-3	2,3,4-Trimethylpentane	163.85	386.55	719.12	1.40422
565-77-5	2,3,4-Trimethyl-2-pentene	159.75	389.15	743.42	1.42742
565-80-0	2,4-Dimethyl-3-pentanone	204.75	398.35	810.82	1.39992
5650-40-8	2-Hydroxy-1-phenyl-1-propanone		524.15	1108.518	1.53623
5655-61-8	l-Bornyl acetate	300.15	496.65	982.25	1.46262
566-02-9	Allopregnane-3β,21-diol-11,20-dione	463.15			
566-58-5	5α-Pregnane-3α,20α-diol	517.15			
566-65-4	5α-Pregnane-3,20-dione	473.15			
5666-17-1	Allyldiethylamine		383.15	747.725	1.42092
56688-75-6	3-Methylcyclohexene, (±)-	150.15	376.15	799.02	1.44142
567-18-0	1-Hydroxy-2-naphthalenesulfonic acid	523.15			
5675-51-4	1,12-Dodecanediol	354.45			
5676-58-4	2,5-Dimethylbenzoxazole		491.65	1088.018	1.54122
568-02-5	5,6-Dihydroxynaphtho[2,3-f]quinoline-7,12-dione	542.15			
568-21-8	Isothebaine	476.65			
568-93-4	1,2-Dihydroxy-3-nitro-9,10-anthracenedione				
5683-33-0	N,N-Dimethyl-2-pyridinamine	455.15	469.15	1014.914	1.56632
56830-75-2	3,3-Difluorocyclopropene		307.15		
5685-06-3	4-Methyl-2(3H)-thiazolethione	362.45			
5687-92-3	Thietane 1,1-dioxide	348.65			1.51562
569-31-3	6,7-Dimethoxy-1(3H)-isobenzofuranone	375.65			
569-41-5	1,8-Dimethylnaphthalene	336.31	549.15	1003.2	
569-51-7	1,2,3-Benzenetricarboxylic acid	482.15		1546.2	
569-57-3	Tris(4-methoxyphenyl)chloroethene	388.15			
569-58-4	Aurin tricarboxylic acid, triammonium salt				
569-61-9	Fuchsin				
569-64-2	Malachite Green				
569-65-3	Meclizine		503.15		
569-77-7	2,3,4,6-Tetrahydroxy-5H-benzocyclohepten-5-one				
56961-20-7	3,4,5-Trichloro-1,2-benzenediol	403.15			
56961-84-3	1,2-Dichloro-4-(dichloromethyl)benzene		530.15	1515.22	
57-00-1	Creatine			1332.5	
57-04-5	Glycerone phosphate				
57-06-7	Allyl isothiocyanate	193.15	433.15	1012.62	1.53062
57-08-9	6-(Acetylamino)hexanoic acid	377.65			
57-10-3	Hexadecanoic acid	335.64	624.15	852.762	1.433456
57-11-4	Stearic acid	342.45	644.15	940.82	1.42998
57-13-6	Urea	405.55		1323.02	1.484
57-14-7	1,1-Dimethylhydrazine	216	335.55	791.22	1.407522
57-15-8	1,1,1-Trichloro-2-methyl-2-propanol	372.15	442.15		
57-22-7	Vincristine	492.15			
57-24-9	Strychnine	557.15		1362	
57-27-2	Morphine	528.15			
57-37-4	Benactyzine hydrochloride	450.65			
57-41-0	Phenytoin	559.15			
57-42-1	Meperidine	303.15			
57-43-2	Amobarbital	426.15			
57-44-3	Barbital	462.15		1220.25	
57-47-6	Physostigmine	378.65			
57-50-1	Sucrose	454.15		1580.517	1.5376
57-53-4	2-Methyl-2-propyl-1,3-propanediol dicarbamate	378.15			
57-55-6	1,2-Propanediol	213.15	460.45	1036.12	1.43242
57-56-7	Hydrazinecarboxamide	369.15		1484.8	
57-57-8	2-Oxetanone	239.867	434.15	1146.02	1.41052
57-62-5	Chlortetracycline	441.65			
57-63-6	Ethinylestradiol	459.15			
57-66-9	4-[(Dipropylamino)sulfonyl]benzoic acid	468.15			
57-67-0	Sulfaguanidine	464.65			
57-68-1	Sulfamethazine	470.15			
57-71-6	2,3-Butanedione monooxime	349.95	458.65		
57-74-9	Chlordane	374.25		1602.5	
57-83-0	Progesterone	404.15		1166.23	
57-85-2	17-(1-Oxopropoxy)androst-4-en-3-one, (17β)	393.15			
57-87-4	Ergosta-5,7,22-trien-3-ol, (3β,22E)-	431.15			