CASRN	Name	Tm	Tb	rho	RI
64-20-0	Tetramethylammonium bromide			1562.5	
64-47-1	Eserine sulfate	414.15			
64-65-3	4-Ethyl-4-methyl-2,6-piperidinedione	399.65			
64-67-5	Diethyl sulfate	247.15	481.15	1172.25	1.39892
64-69-7	Iodoacetic acid	355.65			
64-75-5	Tetracycline hydrochloride	487.15			
64-77-7	Tolbutamide	400.15		1245.25	
64-85-7	21-Hydroxypregn-4-ene-3,20-dione	414.65			
64-86-8	Colchicine	429.15			
640-15-3	Thiometon			1209.2	
640-19-7	2-Fluoroacetamide	381.15			
640-61-9	N,4-Dimethylbenzenesulfonamide	351.65		1340.25	
6402-36-4	trans-2-Dodecenedioic acid	438.65			
64057-79-0	Bis(2-methallyl) carbonate	474.45		943.25	1.43712
64091-91-4	4-(N-Nitrosomethylamino)-1-(3-pyridyl)-1-butanone	336.15			
641-06-5	Triacetamide	352.15			
641-36-1	Apocodeine	396.65			
641-70-3	4-Nitro-1,3-isobenzofurandione	436.55			
641-85-0	5α-Pregnane	357.65			
6410-10-2	1-[(4-Nitrophenyl)azo]-2-naphthol	530.15			
64168-11-2	1,3-Bis(1-methyl-4-piperidyl)propane	286.85		896.225	1.480425
642-18-2	Alstonine				
642-31-9	9-Anthracenecarboxaldehyde	380.15			
642-44-4	6-Amino-3-ethyl-1-allyl-2,4(1H,3H)-pyrimidinedione	416.15			
642-84-2	5-Chloro-N-(3,4-dichlorophenyl)-2-hydroxybenzamide	520.15			
64204-55-3	Esaprazole	385.15			
6422-86-2	Bis(2-ethylhexyl) terephthalate		656.15		
6423-43-4	1,2-Propylene glycol dinitrate				
64257-84-7	Fenpropathrin	322.45		1152.5	
643-13-0	D-Fructose 6-phosphate				
643-22-1	Erythromycin stearate	365.15			
643-28-7	2-Isopropylaniline		494.15	976.012	
643-58-3	2-Methylbiphenyl	272.95	531.15	1011.32	1.59142
643-60-7	Anhalamine	460.65			
643-65-2	(3-Methylphenyl)phenylmethanone	275.15	590.15	1095.2	
643-79-8	1,2-Benzenedicarboxaldehyde	328.95			
643-84-5	Malvidin chloride	573.15			
643-93-6	3-Methylbiphenyl	277.65	547.15	1018.217	1.59722
6436-90-4	Ethyl N-benzylglycinate				1.50412
644-08-6	4-Methylbiphenyl	321.25	546.15	1015.27	
644-30-4	1-(1,5-Dimethyl-4-hexenyl)-4-methylbenzene			880.52	1.49892
644-31-5	Acetyl benzoylperoxide	310.15			
644-32-6	Dibenzoyl disulfide	407.65			
644-35-9	2-Propylphenol	280.15	494.15	1015.2	
644-36-0	2-Methylbenzeneacetic acid	362.15			
644-49-5	Propyl isobutanoate		407.15	884.3	1.39552
644-64-4	Dimetilan	342.15			
644-90-6	2-Aminooctanoic acid, (±)-	543.15			
644-97-3	Phenylphosphonous dichloride	222.15	509.15	1356.2	1.60302
6443-92-1	cis-2-Heptene		370.15	708.2	1.4062
645-00-1	1-Iodo-3-nitrobenzene	309.15	553.15	1947.75	
645-09-0	3-Nitrobenzamide	415.85	585.65		
645-12-5	5-Nitro-2-furancarboxylic acid	459.15			
645-13-6	1-(4-Isopropylphenyl)ethanone		523.15	975.315	1.52352
645-35-2	L-Histidine, monohydrochloride				
645-36-3	2,2-Diethoxyethanamine	195.15	436.15	915.925	1.412325
645-41-0	Triisopentylamine		508.15	784.82	1.43312
645-45-4	Benzenepropanoyl chloride			1135.21	
645-48-7	2-Phenylthiosemicarbazide				
645-49-8	cis-Stilbene	268.15		1014.32	1.61302
645-56-7	4-Propylphenol	295.15	505.15	1009.2	1.537925
645-59-0	Benzenepropanenitrile	272.15	534.15	1001.62	1.526628
645-62-5	2-Ethyl-2-hexenal		448.15	855.42	
645-66-9	Dodecanoic anhydride	314.95		853.37	1.42927
645-92-1	4,6-Diamino-1,3,5-triazin-2(1H)-one				
645-96-5	Benzeneselenol		456.75	1486.515	
6454-84-8	4-Methylisoxazole		400.15		
646-01-5	3-(Methylthio)propanoic acid	294.15			
646-04-8	trans-2-Pentene	132.95	309.45	643.125	1.37932
646-05-9	1-Penten-3-yne		332.15	740.12	1.44962
646-06-0	1,3-Dioxolane	175.94	348.45	1060.2	1.39742
646-07-1	4-Methylpentanoic acid	240.15	473.15	922.52	1.41442
646-13-9	Isobutyl stearate	302.05		849.82	
646-14-0	1-Nitrohexane		466.15	939.62	1.42702
646-19-5	1,7-Heptanediamine	298.45	497.15		
646-20-8	Heptanedinitrile	241.75		949.18	1.44722
646-25-3	1,10-Decanediamine	332.85	535.15		
646-30-0	Nonadecanoic acid	341.21		846.87	
646-31-1	Tetracosane	323.45	664.15	799.12	1.42837
64653-59-4	2-Ethyl-N-(2-ethylphenyl)aniline	302.15			1.555025
6482-24-2	1-Bromo-2-methoxyethane		385.15	1462.32	1.447532
6485-40-1	(R)-Carvone	298.35	504.15	959.32	1.49882
64902-72-3	Chlorsulfuron	449.15			
6493-77-2	Methyl 3-cyclohexene-1-carboxylate		454.15	1013.02	1.46102
65-19-0	Yohimbine hydrochloride	575.15			
65-22-5	Pyridoxal hydrochloride				
65-23-6	5-Hydroxy-6-methyl-3,4-pyridinedimethanol	433.15			
65-29-2	Gallamine triethiodide	420.65			
65-45-2	2-Hydroxybenzamide	413.15		1175.14	
65-46-3	Cytidine				
65-49-6	4-Amino-2-hydroxybenzoic acid				
65-61-2	N,N,N',N'-Tetramethyl-3,6-acridinediamine, monohydrochloride				
65-71-4	Thymine	598.15			
65-82-7	N-Acetyl-L-methionine	378.65			
65-85-0	Benzoic acid	395.49	523.35	1265.915	1.504132
65-86-1	Orotic acid	618.65			
650-51-1	Sodium trichloroacetate	573.15			
650-69-1	β-Citraurin	420.15			
652-67-5	Isosorbide	336.15			
653-03-2	Butaperazine				
653-37-2	Pentafluorobenzaldehyde	293.15	440.15		1.45062
6538-02-9	Ergostan-3-ol, (3β,5α)	417.65			
654-42-2	2,6-Dimethyl-1,4-benzenediol	425.45			
655-48-1	1,2-Diphenyl-1,2-ethanediol, (R*,R*)-(±)-	395.65			
655-86-7	2,3-Phenazinediamine	537.15			
6553-48-6	trans-1,2-Divinylcyclobutane		385.65	781.72	1.44512
65530-93-0	3-Methyl-1-hexanamine		422.15	772.26	1.424925
6556-12-3	D-Glucuronic acid	438.15			
659-70-1	Isopentyl isopentanoate		463.15	858.319	1.413019
6592-85-4	Hydrastinine	389.65			
6596-40-3	Pentacontane	364.85	848.15		
6596-50-5	Selenoformaldehyde				
66-22-8	Uracil	612.15			
66-23-9	Acetylcholine bromide	419.15			
66-25-1	Hexanal	214.95	402.75	833.52	1.40392
66-27-3	Methyl methanesulfonate	293.15	458.15	1294.32	1.41382
66-28-4	Strophanthidin				
66-32-0	Strychnidin-10-one mononitrate	568.15		1627.25	
66-56-8	2,3-Dinitrophenol	418.25		1681.2	
66-71-7	1,10-Phenanthroline	391.71	682.35		
66-75-1	Uracil mustard				
66-76-2	Dicumarol	563.15			
66-77-3	1-Naphthalenecarboxaldehyde	306.65	565.15	1150.32	1.65072
66-81-9	Cycloheximide	392.15			
66-97-7	Psoralen	444.15			
66-99-9	2-Naphthalenecarboxaldehyde	335.15		1077.599	1.621199
660-68-4	Diethylamine hydrochloride	501.65		1047.722	
660-88-8	5-Aminopentanoic acid				
6600-40-4	L-Norvaline	580.15			
6606-59-3	1,6-Hexanediol dimethacrylate			998.25	
6609-56-9	2-Methoxybenzonitrile	297.65	528.65	1106.32	
661-11-0	1-Fluoroheptane	200.15	395.15	806.22	1.38542
661-19-8	1-Docosanol	344.15	680.15		
661-54-1	3,3,3-Trifluoro-1-propyne		224.85		
661-95-0	1,2-Dibromo-1,1,2,3,3,3-hexafluoropropane		345.95	2163.02	
661-97-2	1,2-Dichloro-1,1,2,3,3,3-hexafluoropropane		307.15		
6610-29-3	N-Methylthiosemicarbazide	409.65			
662-01-1	1,3-Dichloro-1,1,2,2,3,3-hexafluoropropane	147.75	308.85	1573.2	1.30302
66215-27-8	Cyromazine	493.15			
6622-76-0	Methyl 2-methyl-2-butenoate, (E)-		412.15	934.912	1.43702
6627-55-0	2-Bromo-4-methylphenol	328.45	486.65	1542.225	1.57722
6627-72-1	Borneol, (±)-	479.15	486.15	1011.2	
6628-21-3	Ethyl 2,3-dichloropropanoate		456.15	1240.12	1.44822
6628-77-9	6-Methoxy-3-pyridinamine	303.15			1.57452
6630-33-7	2-Bromobenzaldehyde	294.65	503.15		1.59252
66325-11-9	1-Hexyl-1,2,3,4-tetrahydronaphthalene		578.15	917.625	1.512725
66333-88-8	5-Methyloxazole		361.15		
66357-35-5	Ranitidine	342.65			
6639-30-1	1,2,4-Trichloro-5-methylbenzene	355.55	502.15		
6640-27-3	2-Chloro-4-methylphenol		468.65	1178.527	1.520027
665-66-7	1-Aminoadamantane hydrochloride				
666-99-9	2-Hydroxy-1,2,3-nonadecanetricarboxylic acid				
6669-13-2	(1,1-Dimethylethoxy)benzene	254.85	467.15	921.42	
66841-25-6	Tralomethrin				
67-03-8	Thiamine hydrochloride				
67-20-9	Nitrofurantoin	536.15			
67-43-6	Pentetic acid	492.15			
67-45-8	Furazolidone	528.15			
67-47-0	5-(Hydroxymethyl)-2-furancarboxaldehyde	304.65		1206.225	1.562718
67-48-1	Choline chloride				
67-51-6	3,5-Dimethyl-1H-pyrazole	380.65	491.15	883.916	
67-52-7	Barbituric acid	521.15			
67-56-1	Methanol	175.65	337.65	791.42	1.32882
67-62-9	O-Methylhydroxylamine		322.15		
67-63-0	2-Propanol	185.24	355.36	780.925	1.37762
67-64-1	Acetone	178.25	329.23	784.525	1.35882
67-66-3	Trichloromethane	209.68	334.35	1478.825	1.44592
67-68-5	Dimethyl sulfoxide	291.67	465.05	1101.025	1.47932
67-71-0	Dimethyl sulfone	381.98	511.15	1170.011	1.4226
67-72-1	Hexachloroethane	459.95		2091.2	
67-73-2	Fluocinolone acetonide				
67-92-5	Dicyclomine hydrochloride	438.15			
67-96-9	Dihydrotachysterol	404.15			
67-97-0	Vitamin D3	357.65			
670-54-2	Tetracyanoethene	471.95	496.15	1348.25	1.56025
670-96-2	2-Phenyl-1H-imidazole	421.35	613.15		
6703-98-6	Hectane	388.35			
6704-31-0	3-Oxetanone		379.15	1137	
6709-39-3	2,6-Dimethyl-1,5-heptadiene	203.15	416.15	764.825	
672-13-9	2-Hydroxy-5-methoxybenzaldehyde	277.15	520.65		
672-15-1	L-Homoserine				
672-65-1	(1-Chloroethyl)benzene				
6728-26-3	trans-2-Hexenal		419.65	849.12	1.44802
673-22-3	2-Hydroxy-4-methoxybenzaldehyde	315.15			
673-31-4	Benzenepropanol carbamate	376.55			
673-32-5	1-Propynylbenzene		459.15	942.15	1.56315
673-79-0	Diethyl thiodipropionate			1103.42	1.46552
67329-04-8	Isazophos		443.15	1222	
674-76-0	4-Methyl-trans-2-pentene	132.35	331.73	668.62	1.38892
674-82-8	Diketene	266.65	400.15	1087.72	1.43792
6740-88-1	Ketamine	365.65			
6742-54-7	Undecylbenzene	256.95	585.15	855.32	1.48282
67485-29-4	Hydramethylnon	466.45			
675-09-2	4,6-Dimethyl-2H-pyran-2-one	324.65	518.15		
675-10-5	4-Hydroxy-6-methyl-2H-pyran-2-one				
675-14-9	Cyanuric fluoride		345.95		
675-20-7	2-Piperidinone	311.83	533.15		
6753-98-6	Humulene			890.52	1.50382
6754-13-8	Helenalin	499.15			
676-58-4	Methylmagnesium chloride				
676-59-5	Dimethylphosphine		298.15		
676-83-5	Dichloromethylphosphine			1304.2	1.49402
676-99-3	Methylphosphonic difluoride		371.15	1331.42	
6765-39-5	1-Heptadecene	283.85	574.15	785.22	1.44322
677-21-4	3,3,3-Trifluoropropene		246.15		
677-69-0	Heptafluoro-2-iodopropane		311.15	1329.82	
6776-19-8	Ethyl cis-2-butenoate		409.15	918.22	1.42422
6779-09-5	Ethylphosphonic acid	334.65			
6779-87-9	7,8-Dihydrobiopterin				
678-26-2	Perfluoropentane	263.15	302.35		
6780-49-0	Ethyl N-phenylformimidate		487.15	1005.12	1.52792
6781-42-6	1,3-Diacetylbenzene	305.15			
6789-80-6	cis-3-Hexenal		394.15	853.322	1.430021
6789-88-4	Hexyl benzoate		545.15	979.32	
67952-57-2	6-Methyl-2-heptanol acetate		460.15	847.42	1.4132
68-04-2	Trisodium citrate	573.15			
68-05-3	Tetraethylammonium iodide				
68-11-1	Thioglycolic acid	257.15		1325.32	1.50802
68-12-2	N,N-Dimethylformamide	212.85	425.95	944.525	1.43052
68-19-9	Vitamin B12	573.15			
68-22-4	Norethisterone	480.15			
68-23-5	Norethynodrel	443.15			
68-26-8	Retinol	336.65			
68-34-8	4-Methyl-N-phenylbenzenesulfonamide	376.65			
68-35-9	4-Amino-N-2-pyrimidinylbenzenesulfonamide	534.15			
68-36-0	1,4-Bis(trichloromethyl)benzene	382.15			
68-41-7	4-Amino-3-isoxazolidinone, (R)-				
68-60-0	5-Pregnane-3,17,21-triol-20-one	499.15			
68-88-2	Hydroxyzine				
68-94-0	Hypoxanthine				
68-96-2	17-Hydroxypregn-4-ene-3,20-dione				
680-31-9	Hexamethylphosphoric triamide	280.35	508.15	1032	1.45792
6802-75-1	Diethyl isopropylidenemalonate		449.65	1028.218	1.448617
681-84-5	Methyl silicate	272.15	393.25	1023.22	1.36832
6812-78-8	3,7-Dimethyl-7-octen-1-ol, (S)-			854.92	1.45562
682-01-9	Propyl silicate		499.15	915.82	1.40122
682-30-4	Diethyl vinylphosphonate			1068.25	1.42902
6829-40-9	Diethyl 2-aminomalonate			1100.16	1.435316
683-08-9	Diethyl methylphosphonate		454.15	1040.63	1.41013
683-18-1	Dibutyltin dichloride	316.15			
683-50-1	2-Chloropropanal		359.15	1182.15	1.43117
683-68-1	1,2-Dibromo-1,2-dichloroethane	247.15	468.15	2135.2	1.56622
683-72-7	2,2-Dichloroacetamide	372.55	507.15		
68359-37-5	Cyfluthrin	333.15			
684-16-2	Perfluoroacetone	147.7	245.75		
684-93-5	N-Methyl-N-nitrosourea				
68420-93-9	6-Methyl-8-quinolinamine	346.15			
6843-66-9	Dimethoxydiphenylsilane		559.15	1077.12	1.54472
6846-11-3	3-Methyl-5-phenyl-2,4-imidazolidinedione	437.65			
6848-13-1	3-Chloro-N,N-dimethylaniline		505.15		
685-63-2	1,1,2,3,4,4-Hexafluoro-1,3-butadiene	141.15	278.55	1473.5	
685-73-4	D-Galacturonic acid	439.15			
685-87-0	Diethyl 2-bromomalonate	219.15	504.15	1402.225	1.45212
685-91-6	N,N-Diethylacetamide		472.15	913.017	1.437417
6850-57-3	2-Methoxybenzenemethanamine		501.15	1051.25	1.54752
6852-54-6	N-(Phenylmethylene)ethanamine		468.15	937.2	1.537815
686-50-0	N-Leucylglycine				
6863-58-7	Di-sec-butyl ether		395.05	756.25	
68694-11-1	Triflumizole	336.65			
687-38-7	N-Glycylserine, (DL)-				
6870-67-3	Jacobine	501.15			
6871-44-9	Echitamine	479.15			
6873-15-0	2-Benzyl-1-methyl-4(1H)-quinazolinone	434.65			
6874-98-2	Sarpagan-17-al	578.65			
6876-23-9	trans-1,2-Dimethylcyclohexane	185.03	396.55	776.02	1.42702
68767-14-6	Loxoprofen	383.15			
688-71-1	Tripropyl borate		451.85	857.62	1.39482
688-73-3	Tributylstannane			1103.2	
688-74-4	Tributyl borate	203.15	506.95	856.72	1.410618
688-84-6	2-Ethylhexyl methacrylate			880.25	1.43625
6881-94-3	Diethylene glycol monopropyl ether	219.85	487.95		
68844-77-9	Astemizole	422.25			
689-11-2	sec-Butylurea	442.15			
689-12-3	Isopropyl acrylate				
689-89-4	Methyl trans,trans-2,4-hexadienoate	288.15	453.15	977.72	1.502522
689-97-4	1-Buten-3-yne		279.15	709.4	1.41611
6893-02-3	Liothyronine				
6893-26-1	D-Glutamic acid			1538.2	
69-09-0	2-Chloro-10-(3-dimethylaminopropyl)phenothiazine monohydrochloride	471.15			
69-23-8	Fluphenazine				
69-53-4	Ampicillin				
69-57-8	Benzylpenicillin sodium	488.15		1410	
69-65-8	D-Mannitol	437.25		1489.2	1.333
69-72-7	2-Hydroxybenzoic acid	431.75		1443.2	1.565
69-89-6	Xanthine				
69-93-2	Uric acid			1892.5	
690-02-8	Dimethylperoxide	173.15	270.15	867.7	1.3503
690-08-4	trans-4,4-Dimethyl-2-pentene	157.95	349.85	688.92	1.39822
690-37-9	2,4,4-Trimethyl-2-pentanol	253.15	419.15	822.52	1.42842
690-39-1	1,1,1,3,3,3-Hexafluoropropane	179.55	271.75	1434.3	
690-92-6	cis-2,2-Dimethyl-3-hexene	135.79	378.55	708.625	1.40992
690-93-7	trans-2,2-Dimethyl-3-hexene		374.05	699.525	1.40632
691-37-2	4-Methyl-1-pentene	119.25	327.15	664.22	1.38282
691-38-3	4-Methyl-cis-2-pentene	138.35	329.55	669.02	1.38002
691-60-1	Isopropylurea				
6917-76-6	Chloroethyldimethylsilane		362.65	867.52	1.41052
692-04-6	N6-Acetyl-L-lysine				
692-24-0	trans-2-Methyl-3-hexene	131.55	361.15	685.325	1.40012
692-29-5	4-Oxobutanoic acid				
692-42-2	Diethylarsine		378.15	1133.824	1.4709
692-45-5	Vinyl formate	195.15	315.15	965.2	1.38422
692-47-7	cis-1,2-Di-tert-butylethene		417.15	744.2	1.42702
692-50-2	1,1,1,4,4,4-Hexafluoro-2-butyne	155.75	248.55		
692-86-4	Ethyl 10-undecenoate	235.15	537.65	882.715	1.444925
6920-22-5	1,2-Hexanediol	318.15	507.15		1.44312
6921-35-3	3,3-Dimethyloxetane		351.15	834.25	1.39652
6921-64-8	1-(2-Hydroxy-4-methylphenyl)ethanone	294.15	518.15	1101.21	1.552713
6923-20-2	cis-1,2-Dichloropropene		378.15		1.45492
6923-22-4	Monocrotophos	328.45		1332	
693-02-7	1-Hexyne	141.05	344.35	715.525	1.39892
693-05-0	3-(Methylamino)propanenitrile			899.22	1.43202
693-07-2	1-Chloro-2-(ethylthio)ethane		430.15	1066.325	
693-13-0	N,N'-Diisopropylcarbodiimide		420.15	806.25	1.43202
693-21-0	Diethylene glycol dinitrate				
693-23-2	Dodecanedioic acid	399.75	621.15	1152.5	
693-36-7	Distearyl thiodipropionate	334.15			
693-54-9	2-Decanone	287.15	484.15	824.82	1.42552
693-58-3	1-Bromononane	244.15	494.55	1084.525	1.452225
693-61-8	trans-2-Undecene	224.85	465.65	752.82	1.42922
693-62-9	trans-4-Undecene	209.45	466.15	750.82	1.42852
693-65-2	Dipentyl ether	203.95	460.15	783.32	1.41192
693-67-4	1-Bromoundecane	263.25	531.95	1049.425	1.455225
693-72-1	trans-11-Octadecenoic acid	316.15		856.37	1.44996
693-89-0	1-Methylcyclopentene	146.55	348.15	774.825	1.43222
693-93-6	4-Methyloxazole		361.15	1015.25	1.43172
693-95-8	4-Methylthiazole		406.35	1112.25	
693-98-1	2-Methyl-1H-imidazole	419.05	540.15		
69377-81-7	Fluroxypyr	505.15			
6938-94-9	Diisopropyl hexanedioate	272.55		956.92	1.42472
694-05-3	1,2,5,6-Tetrahydropyridine	225.15	390.15	911.25	1.48002
694-28-0	2-Chlorocyclopentanone			1185.25	1.47502
694-48-4	1,3-Dimethyl-1H-pyrazole		410.15	956.117	1.473415
694-51-9	1-Fluorocyclohexene		369.65		1.444125
694-53-1	Phenylsilane		392.15	868.12	1.51252
694-59-7	Pyridine-1-oxide	340.95			
694-80-4	1-Bromo-2-chlorobenzene	260.55	477.15	1638.725	1.58092
694-85-9	1-Methyl-2(1H)-pyridinone	304.15	526.15	1112.02	
694-92-8	2-Methyl-2-norbornene		391.15		
6940-76-7	1-Chloro-3-iodopropane		436.15	1904.2	1.54722
6940-78-9	1-Bromo-4-chlorobutane		434.15	1489.2	1.48852
6946-29-8	4-Amino-2-hydroxybenzohydrazide	468.15			
6949-98-0	9,10,16-Trihydroxyhexadecanoic acid	375.15			
695-06-7	5-Ethyldihydro-2(3H)-furanone	255.15	491.15	1026.12	1.44952
695-12-5	Vinylcyclohexane		400.15	816.619	1.45519
695-34-1	4-Methyl-2-pyridinamine	373.15			
695-53-4	5,5-Dimethyl-2,4-oxazolidinedione	349.65			
6951-08-2	Ethyl 1,3-benzodioxole-5-carboxylate	291.65	558.65		
6952-59-6	3-Bromobenzonitrile	312.65	498.15		
6959-48-4	3-(Chloromethyl)pyridine, hydrochloride	416.95			
696-07-1	5-Iodouracil				
696-23-1	2-Methyl-4-nitro-1H-imidazole	526.15			
696-28-6	Dichlorophenylarsine	254.15	529.15	1651.62	1.638615
696-29-7	Isopropylcyclohexane	183.25	427.55	802.32	1.44102
696-30-0	4-Isopropylpyridine	218.25	455.15	938.225	1.49622
696-44-6	N,3-Dimethylaniline		479.65	966.02	1.555725
696-59-3	Tetrahydro-2,5-dimethoxyfuran		418.85	1022.5	1.41802
696-62-8	1-Iodo-4-methoxybenzene	326.15	520.15		
696-63-9	4-Methoxybenzenethiol		501.15	1131.325	1.580125
696-71-9	Cyclooctanol	298.25		974.02	1.48712
6961-82-6	2-Chlorobenzenesulfonamide	461.45			
6963-44-6	1,5-Pentanediol diacetate	275.15	517.15	1029.62	1.426119
69655-05-6	2',3'-Dideoxyinosine	435.15			
697-11-0	Hexafluorocyclobutene	213.15	275.15		
697-82-5	2,3,5-Trimethylphenol	368.15	508.15		
697-91-6	2,6-Dichloro-2,5-cyclohexadiene-1,4-dione	394.95			
6971-51-3	3-Methoxybenzenemethanol	303.15	525.15	1112.25	1.54402
6972-05-0	N,N-Dimethylthiourea	434.65			
6972-47-0	2,4,6-Trichloro-3,5-dimethylphenol	448.15			
6975-60-6	1-(2-Furanyl)-2-propanone	302.15	452.65	1104.2	1.50352
6975-98-0	2-Methyldecane	224.32	462.35	736.82	1.41542
6975-99-1	6-Dodecyne		486.15	785.2	1.44422
698-01-1	2-Chloro-N,N-dimethylaniline		478.15	1106.72	1.55782
698-63-5	5-Nitro-2-furancarboxaldehyde	309.15			
698-69-1	4-Chloro-N,N-dimethylaniline	308.65	504.15	1048.01	
698-76-0	Tetrahydro-6-propyl-2H-pyran-2-one	260.15			
698-87-3	1-Phenyl-2-propanol			991.2	1.51902
6982-25-8	2,3-Butanediol	280.15	451.15	1003.32	1.431025
6983-79-5	Bixin	471.15			
699-02-5	4-Methylbenzeneethanol		513.15	1002.82	1.52672
699-17-2	4-(2-Furanyl)-2-butanone		476.15	1036.119	1.469617
699-30-9	3,3,4,4-Tetrafluorodihydro-2,5-furandione		327.65	1620.92	1.32402
699-98-9	2,3-Pyridinedicarboxylic acid anhydride	411.15			
6995-79-5	trans-1,4-Cyclohexanediol	416.15		1182	
6996-92-5	Benzeneseleninic acid	397.65		1932	
70-07-5	5-[(2-Methoxyphenoxy)methyl]-2-oxazolidinone	417.15			
70-11-1	α-Bromoacetophenone	324.15		1647.2	
70-18-8	Glutathione	468.15			
70-22-4	1-[4-(1-Pyrrolidinyl)-2-butynyl]-2-pyrrolidinone			991.25	1.51602
70-23-5	Ethyl 3-bromo-2-oxopropanoate				
70-25-7	N-Methyl-N'-nitro-N-nitrosoguanidine				
70-26-8	L-Ornithine	413.15			
70-29-1	Diethyl sulfoxide	287.15		1009.222	
70-30-4	Hexachlorophene	438.15			
70-34-8	1-Fluoro-2,4-dinitrobenzene	298.95	569.15	1471.854	1.56902
70-47-3	L-Asparagine	508.15		1543.15	
70-51-9	Desferrioxamine	412.15			
70-54-2	DL-Lysine	497.15			
70-55-3	4-Methylbenzenesulfonamide	411.15			
70-69-9	1-(4-Aminophenyl)-1-propanone	413.15			
70-70-2	1-(4-Hydroxyphenyl)-1-propanone	422.15			
70-78-0	L-3-Iodotyrosine				
700-12-9	Pentamethylbenzene	327.15	505.15	917.2	1.5272
700-13-0	2,3,5-Trimethyl-1,4-benzenediol	443.15			
700-16-3	Perfluoropyridine		356.15		
700-87-8	1-Isocyanato-2-methoxybenzene				
700-88-9	Cyclopentylbenzene		496.15	946.22	1.52802
7005-72-3	1-Chloro-4-phenoxybenzene		557.65	1202.615	1.599
701-57-5	4-Nitrothioanisole	345.15		1239.18	1.64012
701-97-3	Cyclohexanepropanoic acid	289.15	549.65	912.25	1.46382
701-99-5	Phenoxyacetyl chloride		498.65		
70116-68-6	3-Methyl-2-butanol, (±)-		386.85	818.02	1.40892
70124-77-5	Flucythrinate			1189.22	
702-23-8	4-Methoxybenzeneethanol	302.15	608.15		
702-54-5	5,5-Diethyldihydro-2H-1,3-oxazine-2,4(3H)-dione	370.65			
7021-04-7	4-Bromo-α-hydroxybenzeneacetic acid, (±)-	392.15			
703-80-0	1-(1H-Indol-3-yl)ethanone	465.45			