CASRN	Name	Tm	Tb	rho	RI
110-02-1	Thiophene	235.03	357.25	1064.92	1.52892
110-03-2	2,5-Dimethyl-2,5-hexanediol	364.15	506.15	898.2	
110-04-3	1,2-Ethanedisulfonic acid	446.15			
110-05-4	Di-tert-butyl peroxide	233.15	383.15	704.2	1.38902
110-06-5	Di-tert-butyl disulfide	270.65		922.62	1.48992
110-12-3	5-Methyl-2-hexanone		412.15	888.2	1.40622
110-13-4	2,5-Hexanedione	267.65	467.15	737.02	1.42322
110-14-5	Succinamide	536.15	705.15		
110-15-6	Succinic acid	458.15	507.15	1572.25	1.45
110-16-7	Maleic acid	416.65		1590.2	
110-17-8	Fumaric acid	395.15		1635.2	
110-18-9	N,N,N',N'-Tetramethyl-1,2-ethanediamine	215.15	394.15	772.5	1.41792
110-19-0	Isobutyl acetate	176.05	390.05	871.22	1.39022
110-21-4	1,2-Hydrazinedicarboxamide	521.15		1604.17	
110-22-5	Diacetylperoxide	303.15			
110-27-0	Isopropyl tetradecanoate			853.22	1.432525
110-30-5	N,N'-Ethylene distearylamide	422.15			
110-33-8	Dihexyl hexanedioate	264.15	617.15	941.2	
110-38-3	Ethyl decanoate	253.15	515.15	865.02	1.42562
110-39-4	Octyl butanoate	217.55	512.15	862.92	1.426715
110-40-7	Diethyl sebacate	275.65	578.15	964.62	1.43062
110-41-8	2-Methylundecanal			832.15	1.43212
110-42-9	Methyl decanoate	260.35	506.15	873.02	1.42592
110-43-0	2-Heptanone	238.45	424.15	811.12	1.40882
110-44-1	2,4-Hexadienoic acid	407.65		1204.19	
110-45-2	Isopentyl formate	179.65	397.15	877.2	1.39672
110-46-3	Isopentyl nitrite		372.15	882.82	1.39182
110-47-4	3-Isopropoxypropanenitrile				
110-49-6	2-Methoxyethyl acetate	203.15	415.15	1007.419	1.40022
110-51-0	Trihydro(pyridine)boron	283.65		920.2	1.528025
110-52-1	1,4-Dibromobutane	252.05	470.15	1819.925	1.516725
110-53-2	1-Bromopentane	185.15	399.15	1218.22	1.44472
110-54-3	Hexane	177.88	341.87	660.625	1.372725
110-56-5	1,4-Dichlorobutane	234.45	428.15	1133.125	1.452225
110-57-6	trans-1,4-Dichloro-2-butene	276.15	428.55	1183.25	1.487125
110-58-7	Pentylamine	222.15	377.85	754.42	1.4482
110-59-8	Pentanenitrile	176.95	413.15	800.82	1.39712
110-60-1	1,4-Butanediamine	295.05	429.15	877.25	1.49692
110-61-2	Succinonitrile	331.135	539.15	986.76	1.41736
110-62-3	Pentanal	191.65	376.15	809.52	1.39442
110-63-4	1,4-Butanediol	293.58	502.65	1017.12	1.44602
110-65-6	2-Butyne-1,4-diol	330.15	511.15		1.48042
110-66-7	1-Pentanethiol	197.46	399.75	850.2	1.44692
110-67-8	3-Methoxypropanenitrile		438.55	937.92	1.40432
110-68-9	Butylmethylamine		364.15	763.715	
110-69-0	Butanal oxime	243.65	425.15	923.2	
110-70-3	N,N'-Dimethyl-1,2-ethanediamine		393.15	828.15	
110-71-4	1,2-Dimethoxyethane	204.15	358.15	863.725	1.377025
110-72-5	N-Ethyl-1,2-ethanediamine		402.15	837.25	1.43852
110-73-6	2-(Ethylamino)ethanol		451.15	914.2	1.4442
110-74-7	Propyl formate	180.25	353.75	907.32	1.3772
110-75-8	2-Chloroethyl vinyl ether	203.15	381.15	1049.52	1.43782
110-76-9	2-Ethoxyethanamine		381.15	851.22	1.41012
110-77-0	2-(Ethylthio)ethanol	173.15	448.15	1016.62	1.48672
110-78-1	Propyl isocyanate		358.55	908.25	1.39702
110-80-5	2-Ethoxyethanol	203.15	407.85	925.325	1.405425
110-81-6	Diethyl disulfide	171.65	427.15	993.12	1.50732
110-82-7	Cyclohexane	279.85	353.85	773.925	1.423525
110-83-8	Cyclohexene	169.65	356.05	811.02	1.44652
110-85-0	Piperazine	384.15	421.78		1.446113
110-86-1	Pyridine	231.52	388.35	981.92	1.50952
110-87-2	3,4-Dihydro-2H-pyran		358.65	921.19	1.440219
110-88-3	1,3,5-Trioxane	333.15	389.15	1176.5	
110-89-4	Piperidine	262.1	379.34	860.62	1.45302
110-91-8	Morpholine	268.35	401.35	1000.52	1.45482
110-93-0	6-Methyl-5-hepten-2-one	446.65		854.616	1.44452
110-94-1	Pentanedioic acid	371.05	546.15	1429.15	1.4188106
110-95-2	N,N,N',N'-Tetramethyl-1,3-propanediamine		417.15	783.718	
110-96-3	Diisobutylamine	199.65	412.75		1.40902
110-97-4	Diisopropanolamine	317.65	523.15	989.2	
110-99-6	Diglycolic acid	421.15	542.15		
11024-24-1	Digitonin	510.65			
11034-77-8	Anacardic acid	308.65			
111-01-3	2,6,10,15,19,23-Hexamethyltetracosane	235.15	693.15	811.515	1.453015
111-02-4	Squalene	268.35	694.45	858.42	1.49902
111-03-5	Glycerol 1-oleate	308.15		942.02	1.46262
111-06-8	Butyl palmitate	289.15			1.43125
111-11-5	Methyl octanoate	236.25	467.25	877.52	1.41702
111-12-6	Methyl 2-octynoate		490.15	926.2	1.44642
111-13-7	2-Octanone	252.84	446.15	820.2	1.41512
111-14-8	Heptanoic acid	265.98	495.15	912.425	1.41702
111-15-9	2-Ethoxyethyl acetate	211.45	429.75	974.02	1.40542
111-16-0	Heptanedioic acid	377.55	615.15	1329.15	
111-17-1	3,3'-Thiodipropionic acid	402.15			
111-18-2	N,N,N',N'-Tetramethyl-1,6-hexanediamine		482.65	806.25	1.43592
111-19-3	Decanedioyl dichloride	271.85		1121.22	1.468418
111-20-6	Decanedioic acid	404.15	647.15	1270.52	1.422133
111-21-7	Triethylene glycol diacetate	223.15	550.15	1115.32	
111-22-8	Triethylene glycol dinitrate				
111-24-0	1,5-Dibromopentane	233.15	495.45	1692.825	1.510225
111-25-1	1-Bromohexane	188.25	429.15	1174.42	1.44782
111-26-2	Hexylamine	252.15	405.15	766.02	1.41802
111-27-3	1-Hexanol	226.75	430.05	813.62	1.41782
111-28-4	2,4-Hexadien-1-ol	302.15		896.723	1.49812
111-29-5	1,5-Pentanediol	253.15	514.15	991.42	1.44942
111-30-8	Pentanedial	259.15	449.15		1.433025
111-31-9	1-Hexanethiol	192.63	425.85	842.42	1.44962
111-34-2	Butyl vinyl ether	181.15	367.15	788.82	1.40262
111-36-4	Butyl isocyanate		398.15	880.2	1.40602
111-40-0	Bis(2-aminoethyl)amine	234.15	479.65	956.92	1.481025
111-41-1	N-(2-Aminoethyl)ethanolamine		515.15	1028.62	1.48632
111-42-2	Diethanolamine	301.05	544.35	1096.62	1.47762
111-43-3	Dipropyl ether	158.35	363.25	746.62	1.38092
111-44-4	Bis(2-chloroethyl) ether	226.25	451.15	1222	1.4512
111-45-5	2-(Allyloxy)ethanol		431.65	958.02	1.43582
111-46-6	Diethylene glycol	262.85	518.65	1119.715	1.44722
111-47-7	Dipropyl sulfide	170.47	415.95	814.17	1.44872
111-48-8	Bis(2-hydroxyethyl) sulfide	262.95	555.15	1179.325	1.52112
111-49-9	Hexahydro-1H-azepine		409.15	864.322	1.46312
111-50-2	Hexanedioyl dichloride				
111-51-3	N,N,N',N'-Tetramethyl-1,4-butanediamine		441.15	794.215	1.462125
111-54-6	Ethylenebisdithiocarbamic acid				
111-55-7	1,2-Ethanediol, diacetate	242.15	457.15	1104.32	1.41592
111-56-8	2-Bromododecanoic acid	305.15		1147.474	1.458524
111-60-4	1,2-Ethanediol, monostearate	333.65		878.06	1.43106
111-61-5	Ethyl stearate	306.25	629.15	1057.2	1.43494
111-62-6	Ethyl cis-9-octadecenoate	252.15	630.15	872.02	1.45152
111-63-7	Vinyl octadecanoate	302.15		851.72	
111-64-8	Octanoyl chloride	210.15	468.15	953.515	1.43352
111-65-9	Octane	216.42	398.77	698.625	1.394425
111-66-0	1-Octene	171.49	394.45	714.92	1.40872
111-68-2	Heptylamine	250.15	426.15	775.42	1.42512
111-69-3	Hexanedinitrile	275.35	568.15	967.62	1.43802
111-70-6	1-Heptanol	239.95	451.15	821.92	1.42492
111-71-7	Heptanal	229.21	426.15	813.225	1.41132
111-74-0	N,N'-Diethyl-1,2-ethanediamine		419.15	828.02	1.43402
111-75-1	2-(Butylamino)ethanol		472.15	890.72	1.44372
111-76-2	2-Butoxyethanol	198.35	444.15	901.52	1.41982
111-77-3	Diethylene glycol monomethyl ether		467.15	1035.2	1.42642
111-78-4	cis,cis-1,5-Cyclooctadiene	203.95	422.15	883.2	1.490525
111-81-9	Methyl 10-undecenoate	245.65	519.15	889.15	1.43932
111-82-0	Methyl dodecanoate	278.25	541.15	870.22	1.43192
111-83-1	1-Bromooctane	218.15	472.15	1107.225	1.450325
111-84-2	Nonane	219.68	423.95	719.22	1.40582
111-85-3	1-Chlorooctane	215.35	456.15	873.42	1.43092
111-86-4	Octylamine	273.15	451.75	782.62	1.42922
111-87-5	1-Octanol	258.45	467.85	826.225	1.42952
111-88-6	1-Octanethiol	223.95	472.15	843.32	1.45402
111-90-0	Diethylene glycol monoethyl ether		475.15	988.52	1.43002
111-91-1	Bis(2-chloroethoxy)methane		489.15		
111-92-2	Dibutylamine	211.35	435.15	767.02	1.41772
111-94-4	3,3'-Iminobispropanenitrile	267.15		1016.52	
111-95-5	Bis(2-methoxyethyl)amine				
111-96-6	Diethylene glycol dimethyl ether	209.15	435.15	943.42	1.40972
111-97-7	Bis(2-cyanoethyl) sulfide				1.50472
1111-74-6	Dimethylsilane	123.15	253.15		
1111-97-3	3-Chloro-3-methyl-1-butyne	212.15	349.15	906.12	
1112-39-6	Dimethoxydimethylsilane		355.15	864.62	1.37082
1112-48-7	Bromotriethylsilane	223.85	436.15	1143.2	1.45612
1112-55-6	Tetravinylsilane		403.35	799.92	1.46252
1112-67-0	Tetrabutylammonium chloride	347.15			
1113-02-6	Omethoate			1322	1.49872
1113-12-8	Diallyldimethylsilane		411.05	767.92	1.44202
1113-30-0	(Dimethylamino)dimethylborane	181.15	338.15		
1113-60-6	3-Hydroxy-2-oxopropanoic acid				
1113-68-4	N-Acetyl-N-methylacetamide	248.15	468.15	1066.325	1.450225
1113-83-3	N-Glycolylneuraminic acid	459.15			
1114-34-7	D-Lyxose	381.15		1545.2	
1114-51-8	N,N-Diethylpropanamide		464.15	897.22	1.44252
1114-71-2	Pebulate			945.82	1.47522
1114-76-7	N,N-Diethylbutanamide		479.15	888.42	1.440325
1115-12-4	Carbonyl dicyanide	237.15	338.65	1124.2	1.39192
1115-15-7	Divinyl sulfoxide				
1115-30-6	Diethyl 2-acetylsuccinate		528.15	1081.2	1.43462
1115-47-5	N-Acetyl-DL-methionine	387.65			
1116-24-1	N,N-Dipropylacetamide		500.15	899.217	1.441917
1116-39-8	Triisobutylborane		466.35	738.025	1.418823
1116-40-1	Triisobutylamine	251.35	467.15	768.42	1.425217
1116-54-7	N-Nitrosodiethanolamine				1.48492
1116-61-6	Tripropylborane	217.15	432.15	720.425	1.413522
1116-70-7	Tributylaluminum				
1116-76-3	Trioctylamine	238.65	652.15	811.02	1.451019
111675-77-5	2-Methyl-1-heptanol, (±)-	161.15	448.15	802.22	1.4242
1117-55-1	Hexyl octanoate	242.15	550.15	860.32	1.432325
1117-59-5	Hexyl pentanoate	210.15	498.15	863.52	1.422815
1117-61-9	3,7-Dimethyl-6-octen-1-ol, (R)-		497.15	855.02	1.45652
1117-71-1	Methyl 4-bromo-2-butenoate			1490.19	1.49819
1117-86-8	1,2-Octanediol	303.35			
1117-97-1	N-Methoxymethylamine		315.55		
111767-95-4	5-Methyl-1-heptanol, (±)-	169.15	459.15	815.325	1.427225
111768-04-8	2-Methyl-1-hexanol, (±)-		438.15	826.2	1.42262
1118-12-3	tert-Butylurea	449.75			
1118-15-6	1,1,3,3-Tetramethyl-1,3-disiloxanediol	339.15		1095.25	
1118-46-3	Monobutyltin trichloride	210.15		852	
1118-68-9	N,N-Dimethylglycine	458.65			
1118-71-4	2,2,6,6-Tetramethyl-3,5-heptanedione			883.25	1.45892
1118-84-9	Allyl acetoacetate	188.15	471.15	1036.62	1.43982
1119-33-1	γ-Ethyl L-glutamate	464.15			
1119-34-2	L-Arginine, monohydrochloride	492.15			
1119-40-0	Dimethyl glutarate	230.65	489.15	1087.62	1.42422
1119-46-6	5-Chloropentanoic acid	291.15	507.15	1341.625	1.45552
1119-49-9	N-Butylacetamide		502.15	896.025	1.438825
1119-51-3	5-Bromo-1-pentene		398.65	1258.12	1.46402
1119-60-4	6-Heptenoic acid	266.65	499.15	951.514	1.440414
1119-62-6	3,3'-Dithiobispropanoic acid	429.15			
1119-65-9	2-Heptyne		386.75	744.25	1.42302
1119-85-3	trans-3-Hexenedinitrile	349.15			
111991-09-4	Nicosulfuron	445.15			
112-00-5	Dodecyltrimethylammonium chloride				
112-04-9	Trichlorooctadecylsilane			984.25	1.46022
112-05-0	Nonanoic acid	285.53	529.15	905.22	1.434319
112-06-1	Heptyl acetate	222.85	465.35	875.015	1.41502
112-07-2	2-Butoxyethyl acetate		464.25		
112-10-7	Isopropyl stearate	297.25		840.338	
112-12-9	2-Undecanone	289.15	506.25	825.02	1.42912
112-13-0	Decanoyl chloride	238.65	492.15	919.25	1.44102
112-14-1	Octyl acetate	235.15	483.15	870.52	1.41502
112-15-2	Diethylene glycol monoethyl ether acetate	248.15	491.15	1009.62	1.42132
112-16-3	Dodecanoyl chloride	256.15		916.925	1.44582
112-17-4	Decyl acetate	258.15	522.15	867.12	1.42732
112-20-9	Nonylamine	272.15	471.15	788.62	1.43362
112-23-2	Heptyl formate		457.15	878.42	1.41402
112-24-3	N,N'-Bis(2-aminoethyl)-1,2-ethanediamine	285.15	539.65		1.49712
112-25-4	2-(Hexyloxy)ethanol	228.05	481.15	887.82	1.42912
112-26-5	1,2-Bis(2-chloroethoxy)ethane		487.15	1195.2	1.459225
112-27-6	Triethylene glycol	263.75	561.75	1127.415	1.45312
112-29-8	1-Bromodecane	243.85	513.75	1070.22	1.45572
112-30-1	1-Decanol	280.15	502.15	829.72	1.43722
112-31-2	Decanal	269.25	485.15	830.15	1.42872
112-32-3	Octyl formate	234.05	471.95	874.42	1.420815
112-34-5	Diethylene glycol monobutyl ether	205.15	505.15	955.32	1.43062
112-35-6	2-[2-(2-Methoxyethoxy)ethoxy]ethanol		516.15		
112-36-7	Diethylene glycol diethyl ether	228.85	458.15	906.32	1.41152
112-37-8	Undecanoic acid	301.62	553.15	890.72	1.429445
112-38-9	10-Undecenoic acid	297.55	548.15	907.224	1.448624
112-39-0	Methyl palmitate	302.75	597.15	824.775	
112-40-3	Dodecane	263.6	489.45	749.52	1.42102
112-41-4	1-Dodecene	237.96	486.55	758.42	1.43002
112-42-5	1-Undecanol	289.75	519.15	829.82	1.43922
112-43-6	10-Undecen-1-ol	272.15	523.15	849.515	1.45002
112-44-7	Undecanal	269.15		825.123	1.45202
112-45-8	10-Undecenal				
112-47-0	1,10-Decanediol	345.55			
112-48-1	1,2-Dibutoxyethane	204.05	471.15	831.925	1.411225
112-49-2	Triethylene glycol dimethyl ether	229.35	491.15	986.2	1.42242
112-50-5	Triethylene glycol monoethyl ether		529.15	1020.92	
112-52-7	1-Chlorododecane	263.85	536.15	867.32	1.44342
112-53-8	1-Dodecanol	297.35	537.25	830.924	
112-54-9	Dodecanal	317.15		835.215	1.43522
112-55-0	1-Dodecanethiol	266.45	550.15	844.2	1.45892
112-56-1	2-(2-Butoxyethoxy)ethyl thiocyanate				
112-57-2	Tetraethylenepentamine		614.65		1.50422
112-58-3	Dihexyl ether		493.15	793.62	1.42042
112-59-4	Diethylene glycol monohexyl ether	245.15	532.15		
112-60-7	Tetraethylene glycol	263.75	588.15	1128.515	1.45772
112-61-8	Methyl stearate	311.85	626.15	849.84	1.43674
112-62-9	Methyl oleate	253.45	620.15	873.92	1.45222
112-63-0	Methyl linoleate	236.55	620.15	888.61	1.46382
112-64-1	Tetradecanoyl chloride	272.15		907.825	
112-66-3	Dodecyl acetate	274.35	538.15	865.222	1.44392
112-67-4	Hexadecanoyl chloride	285.15		901.625	1.45142
112-69-6	Hexadecyldimethylamine		603.15		
112-70-9	1-Tridecanol	304.15	560.15	822.331	
112-71-0	1-Bromotetradecane	278.85	580.15	1017.02	1.46032
112-72-1	1-Tetradecanol	310.85	568.95	823.638	
112-73-2	Diethylene glycol dibutyl ether	212.95	528.15	885.25	1.42352
112-76-5	Octadecanoyl chloride	296.15		896.9	1.452324
112-79-8	trans-9-Octadecenoic acid	317.15		873.445	1.449945
112-80-1	cis-9-Octadecenoic acid	287.15	633.15	893.52	1.45822
112-82-3	1-Bromohexadecane	290.65	609.15	999.12	1.461825
112-84-5	13-Docosenamide	367.15			
112-85-6	Docosanoic acid	353.75	693.15	822.39	1.42701
112-86-7	cis-13-Docosenoic acid	306.15		860.55	1.47582
112-88-9	1-Octadecene	291.15	588.65	789.12	1.44482
112-89-0	1-Bromooctadecane	300.75	630.15	984.82	1.46312
112-90-3	cis-9-Octadecenylamine	298.15			
112-91-4	cis-9-Octadecenenitrile	272.15		847.17	1.45662
112-92-5	1-Octadecanol	331.15	624.15	812.459	
112-95-8	Eicosane	309.63	617.25	788.62	1.44252
112-96-9	Octadecyl isocyanate	288.65			
112-99-2	Dioctadecylamine	346.05			
1120-16-7	Dodecanamide	374.15			1.428711
1120-21-4	Undecane	247.61	469.05	740.22	1.41642
1120-24-7	Dimethyldecylamine		507.15		
1120-28-1	Methyl eicosanoate	319.55	644.15		1.43176
1120-29-2	5,7-Dodecadiyne				
1120-34-9	Methyl cis-13-docosenoate	272.05	673.15		
1120-36-1	1-Tetradecene	260.27	524.25	774.525	1.43512
1120-48-5	Dioctylamine	293.15	580.85	796.326	1.441526
1120-49-6	Didecylamine		632.15		
1120-56-5	Methylenecyclobutane	138.63	315.15	740.12	1.42102
1120-59-8	2,3-Dihydrothiophene		385.15		
1120-62-3	3-Methylcyclopentene		338.15	757.225	1.42162
1120-64-5	2-Methyl-2-oxazoline		384.15	1005.25	1.43402
1120-71-4	1,3-Propane sultone				
1120-72-5	2-Methylcyclopentanone	198.15	413.15	913.92	1.43642
1120-73-6	2-Methyl-2-cyclopenten-1-one		432.15	980.816	1.476215
1120-87-2	4-Bromopyridine	273.65		1645	1.56942
1120-93-0	4H-Pyran-4-thione	322.15			
1120-94-1	4H-Thiopyran-4-thione	320.15			
1120-97-4	4-Methyl-1,3-dioxane	228.65	388.15	975.82	1.41592
1121-07-9	1-Methyl-2,5-pyrrolidinedione	344.15	507.15		
1121-18-2	2-Methyl-2-cyclohexen-1-one		451.65	966.2	1.48332
1121-22-8	trans-1,2-Cyclohexanediamine	287.95		951.2	
1121-24-0	2-Mercaptophenol	278.65	490.15	1237.1	
1121-31-9	2-Pyridinethiol, 1-oxide	343.65			
1121-37-5	Dicyclopropyl ketone		434.15	977.25	1.46702
1121-55-7	3-Vinylpyridine		435.15	987.92	1.55302
1121-58-0	N-Methyl-4-pyridinamine	391.95			
1121-60-4	2-Pyridinecarboxaldehyde		454.15	1118.125	1.538918
1121-92-2	Octahydroazocine	302.15		896.25	1.47202
1122-42-5	2-Iodo-1,4-dimethylbenzene		505.15	1616.817	1.599217
1122-54-9	1-(4-Pyridinyl)ethanone	289.15	497.15	1097.25	1.528225
1122-58-3	N,N-Dimethyl-4-pyridinamine	387.05			
1122-60-7	Nitrocyclohexane	239.15	478.15	1061.02	1.461219
1122-61-8	4-Nitropyridine	323.15			
1122-62-9	1-(2-Pyridinyl)ethanone		482.15	1077.25	1.52032
1122-72-1	6-Methyl-2-pyridinecarboxaldehyde	305.15			
1122-81-2	4-Propylpyridine		462.15	938.115	1.49662
1122-82-3	Cyclohexyl isothiocyanate		494.15	1033.92	1.53752
1122-83-4	N-Sulfinylaniline		473.15	1236.25	1.62702
1122-91-4	4-Bromobenzaldehyde	334.25			
1123-00-8	Cyclopentaneacetic acid	286.65	501.15	1021.618	1.452318
1123-09-7	3,5-Dimethyl-2-cyclohexen-1-one		481.65	940.02	1.48122
1123-27-9	1-(1-Hydroxycyclohexyl)ethanone		398.65	1024.825	1.467025
1123-34-8	1-Allylcyclohexanol		463.15	934.122	1.475622
1123-63-3	4-Chloro-2,6-dimethylphenol	356.15			
1123-84-8	2,5-Dichlorostyrene	281.15		1246.2	1.57982
1123-85-9	2-Phenyl-1-propanol			975.25	1.55822
1123-95-1	4-Amino-5-(hydroxymethyl)-2(1H)-pyrimidinone				
1124-05-6	1,4-Dichloro-2,5-dimethylbenzene	344.15	495.15		
1124-06-7	4-Chloro-2,5-dimethylphenol	347.65			
1124-11-4	Tetramethylpyrazine	358.45	466.15		
1124-33-0	4-Nitropyridine 1-oxide	433.65			
1125-78-6	5,6,7,8-Tetrahydro-2-naphthol	332.15	548.65	1055.265	
1125-80-0	3-Methylisoquinoline	336.55	526.15		
1126-09-6	Ethyl 4-piperidinecarboxylate				1.45912
1126-46-1	Methyl 4-chlorobenzoate	316.65		1382.2	
1126-78-9	N-Butylaniline	258.75	527.15	932.32	1.53412
1126-79-0	Butyl phenyl ether	253.75	483.15	935.12	1.49692
1127-76-0	1-Ethylnaphthalene	259.25	531.15	1008.22	1.60622
1128-08-1	3-Methyl-2-pentyl-2-cyclopenten-1-one			916.518	1.47672
1129-47-1	Cyclohexyl 2-methylpropanoate		477.15	948.9	
1129-50-6	N-Phenylbutanamide	370.15		1134.25	
1129-89-1	cis-Cyclododecene				1.48402
113-00-8	Guanidine	323.15			
113-15-5	Ergotamine				
113-18-8	Ethchlorvynol		454.15	1072.5	1.47425
113-24-6	Sodium 2-oxopropanoate				
113-42-8	Methylergonovine	445.15			
113-45-1	Methylphenidate				
113-48-4	MGK 264	253.15	430.15	1040	
113-52-0	Imipramine hydrochloride	447.65			
113-53-1	Dothiepin	329.15			
113-59-7	Chlorprothixene	370.25			
113-92-8	Chlorpheniramine maleate	405.65			
1131-16-4	3,5-Dimethyl-1-phenyl-1H-pyrazole		545.15	1056.62	1.573819
1131-18-6	3-Methyl-1-phenyl-1H-pyrazol-5-amine	389.15	606.15		
1131-60-8	4-Cyclohexylphenol	403.75	567.15		
1131-62-0	1-(3,4-Dimethoxyphenyl)ethanone	324.15	560.15		
1132-21-4	3,5-Dimethoxybenzoic acid	458.65			
1132-39-4	Diphenyl selenide	274.45	574.65	1351.2	1.55002
1134-23-2	Cycloate	284.65		1015.63	
1134-35-6	4,4'-Dimethyl-2,2'-bipyridine	444.65			
1134-62-9	2-Butylnaphthalene	266.15	559.15	967.32	1.57772
1135-12-2	4-Benzylaniline	307.65	573.15	1038.25	
1135-66-6	Isolongifolene				
1136-89-6	1-Naphthyl phosphate	433.15			
1137-41-3	4-Aminobenzophenone	396.15			
1137-42-4	4-Hydroxybenzophenone	408.15		1133.172	
1138-52-9	3,5-Di-tert-butylphenol	361.15			
1138-80-3	Benzyloxycarbonylglycine	394.15			
114-03-4	5-Hydroxy-DL-tryptophan				
114-07-8	Erythromycin	464.15			
114-25-0	Biliverdine	573.15			
114-26-1	Propoxur	363.65		1122	
114-80-7	Neostigmine bromide				
114-83-0	Acetic acid, 2-phenylhydrazide	403.15			
114-91-0	2-(2-Methoxyethyl)pyridine		476.15	988.2	1.49752
1141-38-4	2,6-Naphthalenedicarboxylic acid				
1141-59-9	4-(2'-Pyridylazo)resorcinol				
1141-88-4	Bis(2-aminophenyl)disulfide	366.15			
1142-19-4	Bis(4-chlorophenyl) disulfide	345.95			
1142-39-8	4-(Hexyloxy)benzoic acid	379.15			
1142-70-7	5-(2-Bromoallyl)-5-sec-butylbarbituric acid	404.65			
1143-38-0	1,8,9-Anthracenetriol	452.15			
1143-72-2	2,3,4-Trihydroxybenzophenone	413.65			
114369-43-6	Fenbuconazole	398.15			
1144-74-7	(4-Nitrophenyl)phenylmethanone	411.15		1406.9	
114489-96-2	Isobutyl 2-chloropropanoate		449.15	1031.22	1.42472
1145-01-3	3,5-Diphenyl-1H-pyrazole	473.15			
1146-98-1	2-(4-Bromophenyl)-1H-indene-1,3(2H)-dione	411.15			
1146-99-2	2-(4-Chlorophenyl)-1H-indene-1,3(2H)-dione	418.65			
1148-11-4	Benzyl 1,2-pyrrolidinedicarboxylate, (S)-	351.65			1.53102
1148-79-4	2,2':6',2''-Terpyridine	361.15	643.15		
1149-16-2	Glyoxal bis(2-hydroxyanil)	475.15			
1149-24-2	Diethyl 2,6-dimethyl-3,5-pyridinedicarboxylate	344.15	574.15		
115-02-6	Azaserine				