CASRN	Name	Tm	Tb	rho	RI
94-58-6	5-Propyl-1,3-benzodioxole		501.15		
94-59-7	Safrole	284.35	508.15	1100.02	1.53812
94-62-2	Piperine	403.15			
94-65-5	2-Propylcyclohexanone		470.15	927.2	1.45382
94-67-7	Salicylaldoxime	330.15			
94-68-8	N-Ethyl-2-methylaniline	258.15	489.15	948.25	1.54562
94-69-9	N-(2-Methylphenyl)formamide	335.15	561.15	1086.55	
94-70-2	2-Ethoxyaniline	252.15	506.15		1.55602
94-71-3	2-Ethoxyphenol	302.15	490.15	1090.325	
94-74-6	(4-Chloro-2-methylphenoxy)acetic acid	392.85			
94-75-7	(2,4-Dichlorophenoxy)acetic acid	413.15			
94-78-0	Phenazopyridine	412.15			
94-80-4	Butyl (2,4-dichlorophenoxy)acetate	282.15			
94-81-5	4-(4-Chloro-2-methylphenoxy)butanoic acid	373.55			
94-82-6	4-(2,4-Dichlorophenoxy)butanoic acid	391.15			
94-83-7	Sesin	339.15			
94-93-9	N,N'-Bis(2-hydroxybenzylidene)-1,2-ethylenediamine	398.65			
94-96-2	2-Ethyl-1,3-hexanediol	233.15	516.15	932.522	1.44972
94-97-3	5-Chloro-1H-benzotriazole	431.15			
94-99-5	2,4-Dichloro-1-(chloromethyl)benzene				
940-31-8	2-Phenoxypropanoic acid	388.65	539.15	1186.52	1.51842
940-41-0	Trichloro(2-phenylethyl)silane		515.15	1239.72	1.51852
940-62-5	trans-p-Chlorocinnamic acid	522.65			
940-69-2	Lipoamide	401.15			
94023-15-1	1,2-Propylene glycol 2-tert-butyl ether		425.15	870	
941-69-5	1-Phenyl-1H-pyrrole-2,5-dione	363.65			
941-98-0	1-Acetonaphthone	307.15	570.15	1117.121	1.628022
942-01-8	2,3,4,9-Tetrahydro-1H-carbazole	393.15	600.65		
942-06-3	5,6-Dichloro-1,3-isobenzofurandione	461.15	586.15		
942-92-7	1-Phenyl-1-hexanone	300.15	538.15	957.62	1.502725
943-15-7	4-Isopropyl-1-methyl-2-nitrobenzene			1074.42	1.53012
943-27-1	1-(4-tert-Butylphenyl)ethanone	290.85	536.15	963.52	1.51815
943-88-4	4-(4-Methoxyphenyl)-3-buten-2-one	347.15			
943-89-5	trans-3-(4-Methoxyphenyl)-2-propenoic acid	447.35			
944-22-9	Fonofos			1162.5	
945-51-7	Diphenyl sulfoxide	343.35			
946-80-5	Benzyl phenyl ether	312.15	558.15		
947-02-4	Phosfolan	309.65			
947-04-6	Azacyclotridecan-2-one	425.65			
947-42-2	Diphenylsilanediol				
947-73-9	9-Phenanthrenamine	411.45			
947-84-2	2-Phenylbenzoic acid	385.15	616.65		
947-91-1	α-Phenylbenzeneacetaldehyde			1106.121	1.592021
948-32-3	1,2,4-Triisopropylbenzene		517.15	857.425	1.489625
948-65-2	2-Phenyl-1H-indole	461.15			
949-67-7	L-Tyrosine, ethyl ester	381.65			
95-00-1	2,4-Dichlorobenzenemethanamine				1.576225
95-01-2	2,4-Dihydroxybenzaldehyde	408.15			
95-03-4	5-Chloro-2-methoxyaniline	357.15			
95-05-6	Tetraethylthiodicarbonic diamide			1122	
95-06-7	Sulfallate			1088	
95-08-9	2-Ethylbutanoic acid, triethyleneglycol diester				
95-11-4	Bicyclo[2.2.1]hept-5-ene-2-carbonitrile	286.15		999.25	1.48852
95-12-5	Bicyclo[2.2.1]hept-5-ene-2-methanol				
95-13-6	Indene	271.7	455.65	996.025	1.57682
95-14-7	1H-Benzotriazole	373.15			
95-15-8	Benzo[b]thiophene	304.48	494.05	1148.432	1.637437
95-16-9	Benzothiazole	275.65	507.75	1246.02	1.63792
95-20-5	2-Methyl-1H-indole	331.75	546.15	1072	
95-21-6	2-Methylbenzoxazole	282.65	473.65	1121.12	1.54972
95-24-9	6-Chloro-2-benzothiazolamine	473.15			
95-25-0	5-Chloro-2(3H)-benzoxazolone	464.65			
95-29-4	N,N-Diisopropyl-2-benzothiazolesulfenamide	332.15			
95-31-8	2-(tert-Butylaminothio)benzothiazole	381.15			
95-32-9	2-(4-Morpholinyldithio)benzothiazole	408.15			
95-33-0	2-(Cyclohexylaminothio)benzothiazole	376.15			
95-39-6	5-Norbornene-2-methylolacrylate		377.15	1029.25	
95-43-2	D-Threose	402.15			
95-44-3	L-Threose				
95-45-4	Dimethylglyoxime	518.65			
95-46-5	2-Bromotoluene	245.65	455.15	1423.22	1.55652
95-47-6	o-Xylene	247.99	417.55	875.525	1.501825
95-48-7	o-Cresol	304.15	464.15	1032.735	1.538635
95-49-8	2-Chlorotoluene	237.25	431.95	1082.52	1.52682
95-50-1	o-Dichlorobenzene	256.15	453.35	1305.92	1.55152
95-51-2	2-Chloroaniline	270.85	482.15	1211.422	1.58952
95-52-3	2-Fluorotoluene	210.65	387.15	1004.113	1.47042
95-53-4	2-Methylaniline	258.74	473.15	998.42	1.57252
95-54-5	1,2-Benzenediamine	376.15	530.15		
95-55-6	2-Aminophenol	446.65	540.15	1328.25	
95-56-7	2-Bromophenol	278.75	467.65	1492.42	1.5892
95-57-8	2-Chlorophenol	281.15	446.55	1263.42	1.55242
95-59-0	2,3-Dichloro-1,4-dioxane	303.15		1468.2	1.49282
95-63-6	1,2,4-Trimethylbenzene	229.35	442.55	875.82	1.50482
95-64-7	3,4-Dimethylaniline	322.15	501.15	1076.18	
95-65-8	3,4-Xylenol	338.25	500.46	983.02	
95-68-1	2,4-Dimethylaniline	260.15	488.15	972.32	1.55692
95-69-2	4-Chloro-2-methylaniline	303.45	517.15		
95-70-5	2-Methyl-1,4-benzenediamine	337.15	546.65		
95-71-6	2-Methyl-1,4-benzenediol	398.15	556.15		
95-72-7	2-Chloro-1,4-dimethylbenzene	273.95	458.15	1058.915	
95-73-8	2,4-Dichlorotoluene	259.65	473.15	1247.62	1.55112
95-74-9	3-Chloro-4-methylaniline	299.15	506.15		
95-75-0	3,4-Dichlorotoluene	257.95	481.15	1256.42	1.54712
95-76-1	3,4-Dichloroaniline	345.15	546.15		
95-77-2	3,4-Dichlorophenol	340.95	526.15		
95-78-3	2,5-Dimethylaniline	279.15	487.15	979.021	1.559121
95-79-4	5-Chloro-2-methylaniline	299.15	512.15		
95-80-7	4-Methyl-1,3-benzenediamine	372.15	565.15		
95-82-9	2,5-Dichloroaniline	318.05	523.15		
95-83-0	4-Chloro-1,2-benzenediamine	349.15			
95-84-1	2-Amino-4-methylphenol	409.15			
95-85-2	2-Amino-4-chlorophenol	413.15			
95-86-3	2,4-Diaminophenol				
95-87-4	2,5-Xylenol	348.05	484.29		
95-88-5	4-Chloro-1,3-benzenediol		530.15		
95-92-1	Diethyl oxalate	232.55	459.15	1078.52	1.41012
95-93-2	1,2,4,5-Tetramethylbenzene	352.35	470.15	838.081	1.479081
95-94-3	1,2,4,5-Tetrachlorobenzene	412.35	520.15	1858.22	
95-95-4	2,4,5-Trichlorophenol	341.55	535.15		
950-10-7	Mephosfolan				1.535426
950-37-8	Methidathion	315.65			
952-97-6	1-Nitro-4-(phenylthio)benzene	329.15			
953-17-3	Methyl trithion	255.15			
955-83-9	2,5-Diphenylfuran	364.15	617.15		
957-51-7	Diphenamid	406.15			
957-68-6	7-Aminocephalosporanic acid				
958-09-8	2'-Deoxyadenosine				
959-26-2	Bis(2-hydroxyethyl) terephthalate	382.65			
959-28-4	trans-1,4-Diphenyl-2-butene-1,4-dione	384.15			
959-33-1	3-(4-Methoxyphenyl)-1-phenyl-2-propen-1-one	352.15			
959-36-4	2-Hydroxybenzaldehyde, [(2-hydroxyphenyl)methylene]hydrazone	487.15			
96-00-4	2-Hydroxycyclodecanone	311.65			
96-01-5	1,2-Cyclodecanedione	314.15			
96-02-6	3-Chloro-2,5-furandione	306.15	469.15	1537.525	1.49802
96-04-8	2,3-Heptanedione		417.15	919.18	1.415018
96-05-9	Allyl methacrylate			933.52	1.43602
96-08-2	1,2:8,9-Diepoxy-p-menthane	515.15			
96-09-3	Phenyloxirane	237.55	467.25	1049.025	1.53422
96-10-6	Chlorodiethylaluminum	199.15		960	
96-11-7	1,2,3-Tribromopropane	287.15	495.25	2420.82	1.58622
96-12-8	1,2-Dibromo-3-chloropropane		473.15	2093.14	1.55314
96-13-9	2,3-Dibromo-1-propanol		492.15	2120.2	
96-14-0	3-Methylpentane	110.26	336.45	659.825	1.37652
96-18-4	1,2,3-Trichloropropane	259.35	431.15	1388.92	1.48522
96-19-5	1,2,3-Trichloro-1-propene		415.15	1412.2	1.50302
96-21-9	1,3-Dibromo-2-propanol			2136.42	1.549525
96-22-0	3-Pentanone	234.17	375.05	809.825	1.390525
96-23-1	1,3-Dichloro-2-propanol		444.15	1350.617	1.48372
96-24-2	3-Chloro-1,2-propanediol		494.15	1325.18	1.48092
96-26-4	1,3-Dihydroxy-2-propanone	347.15			
96-27-5	3-Mercapto-1,2-propanediol			1245.52	1.52682
96-29-7	2-Butanone oxime	243.65	424.65	923.22	1.44102
96-31-1	N,N'-Dimethylurea	379.15	542.15	1142.25	
96-32-2	Methyl bromoacetate		414.15	1635.02	1.45202
96-33-3	Methyl acrylate	197.55	353.25	953.52	1.40402
96-34-4	Methyl chloroacetate	240.85	403.15	1236.2	1.42182
96-35-5	Methyl hydroxyacetate		422.15	1167.718	
96-37-7	Methylcyclopentane	130.731	344.95	748.62	1.40972
96-39-9	1-Methyl-1,3-cyclopentadiene		338.15	812	1.45122
96-40-2	3-Chlorocyclopentene			1038.825	1.470826
96-41-3	Cyclopentanol	256.15	413.55	948.82	1.45302
96-43-5	2-Chlorothiophene	201.3	399.15	1286.32	1.54872
96-45-7	2-Imidazolidinethione	476.15			
96-47-9	2-Methyltetrahydrofuran		353.15	855.22	1.405921
96-48-0	γ-Butyrolactone	229.79	477.75	1129.62	1.43412
96-49-1	Ethylene carbonate	309.481	519.15	1321.439	1.41485
96-50-4	2-Thiazolamine	366.15			
96-53-7	2-Thiazolidinethione	380.45			
96-54-8	1-Methylpyrrole	216.92	385.85	914.515	1.48752
96-64-0	1,2,2-Trimethylpropyl methylphosphonofluoridate				
96-69-5	4,4'-Thiobis(6-tert-butyl-m-cresol)	436.15			
96-70-8	2-tert-Butyl-4-ethylphenol	296.15	523.15		
96-76-4	2,4-Di-tert-butylphenol	331.15	535.15		1.50802
96-77-5	4-Hydroxy-1,3-benzenedisulfonic acid				
96-80-0	N,N-Diisopropylethanolamine		468.15	826.25	1.44172
96-81-1	N-Acetyl-L-valine	437.15			
96-82-2	4-O-β-D-Galactopyranosyl-D-gluconic acid				
96-83-3	Iopanoic acid	429.15			
96-88-8	Mepivacaine	423.65			
96-91-3	2-Amino-4,6-dinitrophenol	441.15			
96-96-8	4-Methoxy-2-nitroaniline	402.15			
96-97-9	2-Hydroxy-5-nitrobenzoic acid	502.65		1650.2	
96-99-1	4-Chloro-3-nitrobenzoic acid	455.95		1645.18	
960-71-4	Triphenylborane	415.15			
961-11-5	Tetrachlorovinphos	370.15			
961-29-5	2',4,4'-Trihydroxychalcone	473.15			
961-68-2	2,4-Dinitro-N-phenylaniline	432.15			
965-90-2	Ethylestrenol	350.15			
968-81-0	Acetohexamide	461.15			
968-93-4	Testolactone	491.15			
97-00-7	1-Chloro-2,4-dinitrobenzene	323.35	588.15	1498.275	1.58576
97-02-9	2,4-Dinitroaniline	453.25		1615.14	
97-05-2	2-Hydroxy-5-sulfobenzoic acid	393.15			
97-08-5	4-Chloro-3-nitrobenzenesulfonyl chloride	333.95			
97-09-6	4-Chloro-3-nitrobenzenesulfonamide	448.15			
97-16-5	2,4-Dichlorophenyl benzenesulfonate	318.65			
97-17-6	Dichlofenthion				
97-18-7	Bithionol	461.15		1732.5	
97-23-4	Dichlorophene	450.65			
97-24-5	Bis(2-hydroxy-5-chlorophenyl) sulfide	447.15			
97-25-6	2,2,2-Trichloroethyl-β-D-glucopyranosiduronic acid	415.15			
97-30-3	Methyl α-D-glucopyranoside	436.95		1463	
97-39-2	N,N'-Di(o-tolyl)guanidine	452.15		1102	
97-50-7	5-Chloro-2,4-dimethoxyaniline	364.15			
97-51-8	2-Hydroxy-5-nitrobenzaldehyde	400.15			
97-52-9	2-Methoxy-4-nitroaniline	414.15			
97-53-0	4-Allyl-2-methoxyphenol	265.65	527.15	1065.22	1.54052
97-54-1	Isoeugenol		537.15	1080.25	1.573919
97-56-3	2',3-Dimethyl-4-aminoazobenzene	375.15			
97-59-6	Allantoin	512.15			
97-62-1	Ethyl 2-methylpropanoate	175.35	384.15	868.2	1.386918
97-63-2	Ethyl methacrylate		389.15	913.52	1.41472
97-65-4	1-Propene-2,3-dicarboxylic acid	438.85		1632.25	
97-69-8	N-Acetyl-L-alanine	398.15			
97-72-3	2-Methylpropanoic anhydride	219.65	456.15	953.52	1.406119
97-74-5	Tetramethylthiodicarbonic diamide	382.65		1372.5	
97-77-8	Disulfiram	344.65			
97-78-9	N-Methyl-N-(1-oxododecyl)glycine	317.65			
97-85-8	Isobutyl isobutanoate	192.55	421.15	854.22	1.39992
97-86-9	Isobutyl methacrylate		426.15	885.82	1.41992
97-88-1	Butyl methacrylate		436.85	893.62	1.42402
97-90-5	1,2-Ethanediol, dimethacrylate	233.15	533.15	1053.2	1.453225
97-93-8	Triethylaluminum	225.01	466.15	832.25	
97-94-9	Triethylborane	180.35	368.15	702.3	1.3971
97-95-0	2-Ethyl-1-butanol	258.15	428.15	832.62	1.42202
97-96-1	2-Ethylbutanal			811.02	1.40252
97-97-2	2-Chloro-1,1-dimethoxyethane		400.65	1068.2	1.41502
97-99-4	Tetrahydrofurfuryl alcohol	193.15	449.45	1052.42	1.45202
972-02-1	Diphenidol	377.65			
973-21-7	Dinobuton	333.15			
975-17-7	2,6,7-Trihydroxy-9-phenyl-3H-xanthen-3-one	573.15			
976-71-6	Canrenone	423.15			
97886-45-8	Dithiopyr	338.15			
979-92-0	S-Adenosyl-L-homocysteine				
98-00-0	Furfuryl alcohol	258.65	441.15	1129.62	1.48692
98-01-1	Furfural	234.85	434.65	1159.42	1.52612
98-02-2	2-Furanmethanethiol		430.15	1131.92	1.53292
98-03-3	2-Thiophenecarboxaldehyde		472.15	1212.721	1.59202
98-04-4	Phenyltrimethylammonium iodide	497.15			
98-05-5	Benzenearsonic acid				
98-06-6	tert-Butylbenzene	215.31	442.25	866.52	1.49272
98-07-7	(Trichloromethyl)benzene	256.15	494.15	1372.32	1.55802
98-08-8	(Trifluoromethyl)benzene	244.16	375.15	1188.42	1.41462
98-09-9	Benzenesulfonyl chloride	287.65	525.15	1347.015	
98-10-2	Benzenesulfonamide	429.15			
98-11-3	Benzenesulfonic acid	338.15			
98-13-5	Trichlorophenylsilane		474.15	1321.2	1.52302
98-15-7	1-Chloro-3-(trifluoromethyl)benzene	217.15	399.15	1331.125	1.443825
98-16-8	3-(Trifluoromethyl)aniline	278.65	460.15	1304.712	1.47872
98-17-9	3-(Trifluoromethyl)phenol	272.25	451.15	1341.825	
98-19-1	1-tert-Butyl-3,5-dimethylbenzene	255.15	480.15	866.82	
98-27-1	4-tert-Butyl-2-methylphenol	300.65	529.15	965.2	1.52302
98-28-2	2-Chloro-4-tert-butylphenol				
98-29-3	4-tert-Butyl-1,2-benzenediol	327.15	559.15		
98-37-3	3-Amino-4-hydroxybenzenesulfonic acid	573.15			
98-46-4	1-Nitro-3-(trifluoromethyl)benzene	270.75	475.95	1435.715	1.47192
98-47-5	3-Nitrobenzenesulfonic acid	321.15			
98-48-6	1,3-Benzenedisulfonic acid				
98-49-7	p-Diisopropylbenzene hydroperoxide	303.25		993.22	
98-50-0	(4-Aminophenyl)arsonic acid	505.15		1957.11	
98-51-1	1-tert-Butyl-4-methylbenzene	220.66	466.15	861.22	1.49182
98-53-3	4-tert-Butylcyclohexanone	321.15			
98-54-4	4-tert-Butylphenol	373.15	517.15	908.8	1.4787114
98-56-6	1-Chloro-4-(trifluoromethyl)benzene	240.15	411.65	1334.025	1.44313
98-57-7	1-Chloro-4-(methylsulfonyl)benzene	371.15			
98-58-8	4-Bromobenzenesulfonyl chloride	349.15			
98-59-9	p-Toluenesulfonyl chloride	344.15			
98-60-2	4-Chlorobenzenesulfonyl chloride	324.15			
98-61-3	4-Iodobenzenesulfonyl chloride	358.15			
98-62-4	4-Aminobenzenesulfonyl fluoride	341.65			
98-64-6	4-Chlorobenzenesulfonamide	419.15			
98-66-8	4-Chlorobenzenesulfonic acid	340.15			
98-67-9	4-Hydroxybenzenesulfonic acid				
98-68-0	4-Methoxybenzenesulfonyl chloride	315.65			
98-69-1	4-Ethylbenzenesulfonic acid			1230	
98-71-5	4-Hydrazinobenzenesulfonic acid	559.15			
98-72-6	(4-Nitrophenyl)arsonic acid				
98-73-7	4-tert-Butylbenzoic acid	437.15			
98-74-8	4-Nitrobenzenesulfonyl chloride	352.65			
98-79-3	L-Pyroglutamic acid	435.15			
98-80-6	Benzeneboronic acid	492.15			
98-81-7	(1-Bromovinyl)benzene	229.15		1402.523	1.58812
98-82-8	Isopropylbenzene	177.14	425.55	864.025	1.49152
98-83-9	Isopropenylbenzene	250.79	438.55	910.62	1.53862
98-85-1	α-Methylbenzenemethanol	288.15	478.15	1013.25	1.52652
98-86-2	Acetophenone	292.55	475.25	1028.12	1.53722
98-87-3	(Dichloromethyl)benzene	256.15	478.15	1262.5	1.55022
98-88-4	Benzoyl chloride	272.65	474.15	1212.02	1.55372
98-89-5	Cyclohexanecarboxylic acid	301.15	506.15	1033.422	1.45302
98-91-9	Benzenecarbothioic acid	297.15		1282	1.60402
98-92-0	3-Pyridinecarboxamide	401.95		1400.25	1.466
98-94-2	Cyclohexyldimethylamine		434.15		
98-95-3	Nitrobenzene	278.8	483.85	1203.72	1.55622
98-96-4	Pyrazinecarboxamide	463.15			
98-97-5	Pyrazinecarboxylic acid	498.15			
98-98-6	2-Pyridinecarboxylic acid	409.75			
981-18-0	Phenyl(triphenylmethyl)diazene				
982-43-4	Prenoxdiazine hydrochloride	459.65			
98319-26-7	Finasteride	525.15			
99-02-5	1-(3-Chlorophenyl)ethanone		517.15	1213.04	1.54942
99-03-6	1-(3-Aminophenyl)ethanone	371.65	562.65		
99-04-7	m-Toluic acid	382.45		1054.112	1.509
99-05-8	Aniline-3-carboxylic acid	452.85		1512.5	
99-06-9	3-Hydroxybenzoic acid	474.45		1485.25	
99-07-0	3-(Dimethylamino)phenol	359.15	539.65		1.589526
99-08-1	3-Nitrotoluene	289.05	505.25	1158.12	1.54662
99-09-2	3-Nitroaniline	385.15	585.15	901.125	
99-10-5	3,5-Dihydroxybenzoic acid	508.45			
99-11-6	Citrazinic acid				
99-12-7	1,3-Dimethyl-5-nitrobenzene	348.15	547.15		
99-14-9	1,2,3-Propanetricarboxylic acid	439.15			
99-16-1	Allantoic acid				
99-17-2	Populin	453.15			
99-20-7	Trehalose	482.55		1582.4	
99-24-1	Methyl 3,4,5-trihydroxybenzoate	475.15			
99-28-5	2,6-Dibromo-4-nitrophenol				
99-30-9	2,6-Dichloro-4-nitroaniline	466.95			
99-31-0	5-Amino-1,3-benzenedicarboxylic acid	633.15			
99-32-1	4-Oxo-4H-pyran-2,6-dicarboxylic acid	535.15			
99-33-2	3,5-Dinitrobenzoyl chloride	347.15			
99-34-3	3,5-Dinitrobenzoic acid	478.15			
99-35-4	1,3,5-Trinitrobenzene	394.45	588.15	1477.5152	
99-36-5	Methyl 3-methylbenzoate		493.15	1061.2	
99-45-6	Adrenalone				
99-48-9	Carvenol		501.15	948.425	1.494225
99-50-3	3,4-Dihydroxybenzoic acid	475.15		1524.4	
99-51-4	1,2-Dimethyl-4-nitrobenzene	301.15	524.15	1112.15	1.52022
99-52-5	2-Methyl-4-nitroaniline	401.15		1158.614	
99-54-7	1,2-Dichloro-4-nitrobenzene	314.15	528.65	1455.875	
99-55-8	2-Methyl-5-nitroaniline	378.65			
99-56-9	4-Nitro-1,2-benzenediamine	472.65			
99-57-0	2-Amino-4-nitrophenol	419.15			
99-59-2	2-Methoxy-5-nitroaniline	391.15		1206.815	
99-60-5	2-Chloro-4-nitrobenzoic acid	414.95			
99-61-6	3-Nitrobenzaldehyde	331.15		1279.22	
99-62-7	1,3-Diisopropylbenzene	210.15	476.15	855.92	1.48832
99-63-8	1,3-Benzenedicarbonyl dichloride	316.65	549.15	1388.017	1.57047
99-64-9	3-(Dimethylamino)benzoic acid	425.65			
99-65-0	1,3-Dinitrobenzene	362.35	569.15	1575.118	
99-66-1	2-Propylpentanoic acid		496.15	904.25	1.42525
99-71-8	4-sec-Butylphenol	333.15	516.15	986.2	1.518221
99-73-0	2-Bromo-1-(4-bromophenyl)ethanone	384.15			
99-75-2	Methyl 4-methylbenzoate	306.5	495.15		
99-76-3	Methyl 4-hydroxybenzoate	398.35			
99-77-4	Ethyl 4-nitrobenzoate	330.15	459.45		
99-79-6	Iophendylate			1252	1.52525
99-83-2	α-Phellandrene	511.15	448.05	841.02	1.47125
99-84-3	4-Methylene-1-isopropylcyclohexene		446.65	838.22	1.475422
99-85-4	γ-Terpinene		456.15	849.2	1.476514
99-86-5	α-Terpinene		447.15	837.519	1.47719
99-87-6	1-Isopropyl-4-methylbenzene	205.05	450.15	857.32	1.49092
99-88-7	4-Isopropylaniline		501.15	953.2	
99-89-8	4-Isopropylphenol	335.15	501.15	990.2	1.52282
99-90-1	1-(4-Bromophenyl)ethanone	323.65	530.15	1647.25	1.647
99-91-2	1-(4-Chlorophenyl)ethanone	291.55	510.15	1192.22	1.55502
99-92-3	1-(4-Aminophenyl)ethanone	378.15	567.15		
99-93-4	1-(4-Hydroxyphenyl)ethanone	381.35		1109.0109	1.5577109
99-94-5	p-Toluic acid	453.15			
99-96-7	4-Hydroxybenzoic acid	486.15		1462.5	
99-97-8	4-Methyl-N,N-dimethylaniline		484.15	936.62	1.53662
99-98-9	N,N-Dimethyl-1,4-benzenediamine	326.15	537.15	1036.2	
99-99-0	4-Nitrotoluene	324.85	511.81	1103.875	
991-42-4	Norbormide	467.15			
992-59-6	Benzopurpurine 4B				
992-94-9	Methylsilane	116.65	215.65		
993-00-0	Chloromethylsilane	138.15	280.15		
993-07-7	Trimethylsilane	137.25	279.85		
993-13-5	Methylphosphonic acid	381.65			
994-05-8	2-Methoxy-2-methylbutane		359.55	766.025	1.386225
994-30-9	Chlorotriethylsilane		419.15	896.72	1.43142
994-49-0	Hexaethyldisiloxane		525.15	845.72	1.43402
996-50-9	N,N-Diethyl-1,1,1-trimethylsilanamine		399.45	762.72	1.41122
996-98-5	Oxalyl dihydrazide	517.15		1458.22	
998-29-8	Tripropylsilane		445.15	772.3	1.42802
998-30-1	Triethoxysilane		406.65	874.52	
998-40-3	Tributylphosphine		513.15	812.25	1.46192
998-41-4	Tributylsilane		494.15	779.42	1.43802
998-93-6	4-Bromoheptane		436.15	1135.12	1.44952
998-95-8	4-Chloroheptane		429.15	871.02	1.42372
999-21-3	Diallyl maleate			1075.2	1.46992
999-52-0	3-Chloroheptane		429.15	869.02	1.42282
999-55-3	Allyl acrylate		394.15	944.12	1.43202
999-61-1	2-Hydroxypropyl acrylate				
999-78-0	4,4-Dimethyl-2-pentyne	191.15	356.15	717.62	1.40712
999-81-5	Chlormequat chloride				
999-97-3	Hexamethyldisilazane		398.15	774.125	1.40902