CASRN	Name	Tm	Tb	rho	RI
17556-48-8	1,1,1-Trifluoro-2-propanol, (±)-	221.15	349.35	1263.225	1.313025
17560-51-9	Metolazone	527.15			
17564-64-6	N-Chloromethylphthalimide	406.65			
1758-33-4	cis-2,3-Dimethyloxirane	189.75	333.15	822.625	1.38022
1758-68-5	1,2-Diamino-9,10-anthracenedione	576.65			
1758-73-2	Formamidinesulfinic acid				
1758-88-9	2-Ethyl-1,4-dimethylbenzene	219.45	459.15	873.225	1.50432
17587-22-3	6,6,7,7,8,8,8-Heptafluoro-2,2-dimethyl-3,5-octanedione	311.15		1273.25	1.37662
1759-53-1	Cyclopropanecarboxylic acid	291.65	455.35	1088.52	1.43902
1759-58-6	trans-1,3-Dimethylcyclopentane	139.25	363.85	744.325	1.41072
1759-81-5	4-Methylcyclopentene	112.35	341.15	763.425	1.42092
1760-24-3	N-[3-(Trimethoxysilyl)propyl]-1,2-ethanediamine			1012.5	1.441625
1761-56-4	2-[[(2-Hydroxyphenyl)imino]methyl]phenol	458.15			
1761-61-1	5-Bromo-2-hydroxybenzaldehyde	378.65			
1761-71-3	Bis(4-aminocyclohexyl)methane	288.15	593.15	927.5	
17617-23-1	Flurazepam	353.15			
1762-26-1	Ethyltrimethyllead			1882	
1762-27-2	Diethyldimethyllead			1792	
1762-28-3	Methyltriethyllead			1712	
17627-77-9	Anhalonidine	433.65			
17639-93-9	Methyl 2-chloropropanoate		405.65	1075.025	
17673-25-5	Phorbol				
17679-92-4	1-Octen-3-yne		407.15	774.92	1.45922
1768-34-9	Methyl cyanate	243.15			
17692-39-6	Fomocaine	326.15			
17696-11-6	8-Bromooctanoic acid	311.65			
17696-37-6	4-tert-Butyl-2,5-dimethylphenol	344.35	535.15	939.8	1.53112
17699-86-4	1-Methyl-4-vinylcyclohexene		425.15	850	1.47012
1772-25-4	1,3,6-Tricyanohexane			1040	1.46602
17746-05-3	Undecanoyl chloride				
17754-90-4	4-(Diethylamino)-2-hydroxybenzaldehyde	338.15			
1777-82-8	2,4-Dichlorobenzenemethanol	332.65			
1777-84-0	N-(4-Ethoxy-3-nitrophenyl)acetamide	397.15			
1778-09-2	4-Acetylthioanisole	354.65			
17784-12-2	Sulfacytine	440.15			
17788-00-0	2,4-Dichloro-3-methylphenol	331.15	509.15		
1779-25-5	Chlorodiisobutylaluminum	233.15		905	1.45062
1779-48-2	Phenylphosphinic acid	356.95			
1779-81-3	4,5-Dihydro-2-thiazolamine	358.45			
1780-31-0	2,4-Dichloro-5-methylpyrimidine	299.15	508.15		
1780-40-1	Tetrachloropyrimidine	342.15			
17804-35-2	Benomyl				
1781-78-8	Cyclooctyne		431.15	868.2	1.48502
17831-71-9	Tetraethylene glycol diacrylate			1125.25	
17849-38-6	2-Chlorobenzenemethanol	346.15	503.15		
17851-27-3	1-Ethyl-2,4,5-trimethylbenzene	259.75	485.15	883.2	1.50752
1787-61-7	Eriochrome Black T				
17878-44-3	(4-Bromophenoxy)trimethylsilane			1261.92	1.51452
1792-81-0	cis-1,2-Cyclohexanediol	368.15		1029.7101	
17924-92-4	Zearalenone	437.15			
1795-15-9	Octylcyclohexane	252.75	536.15	813.82	1.45032
1795-16-0	Decylcyclohexane	271.43	571.15	818.62	1.45342
1795-17-1	Dodecylcyclohexane	285.75	604.15	822.32	1.45592
1795-18-2	Tetradecylcyclohexane	297.15	631.15	825.42	1.45792
1795-20-6	Octylcyclopentane	228.65	515.15	804.82	1.44462
1795-21-7	Decylcyclopentane	251.04	552.15	811.02	1.44862
1795-26-2	1α,3α,5β-1,3,5-Trimethylcyclohexane	165.75	414.15	779.42	1.43072
1795-48-8	2-Isocyanatopropane		347.65	866.25	1.38252
17952-11-3	Ethyl pentyl ether		391.15	762.22	1.39272
180-43-8	Spiro[5.5]undecane		487.15	878.32	1.4731
18023-33-1	Triisopropoxyvinylsilane		452.65	862.725	1.39812
18031-40-8	4-(1-Methylvinyl)-1-cyclohexene-1-carboxaldehyde, (S)-			964.52	1.50722
1806-26-4	4-Octylphenol	316.15			
1806-29-7	[1,1'-Biphenyl]-2,2'-diol	386.75	593.15	1342.02	
1807-55-2	4,4'-Methylenebis(N-methylaniline)				
18089-64-0	Iodomethylsilane	163.65	344.95		
1809-05-8	3-Iodopentane		414.15	1517.62	1.49742
1809-10-5	3-Bromopentane	146.95	391.15	1214.2	1.44412
1809-19-4	Dibutyl phosphonate		503.15	985.25	1.42202
1809-20-7	Diisopropyl phosphonate			997.018	
1814-88-6	1,1,1,2,2-Pentafluoropropane		255.15		
18156-74-6	1-(Trimethylsilyl)-1H-imidazole				
18162-48-6	Chloro-(tert-butyl)dimethylsilane	362.65	398.15		
18169-57-8	Trichloroisobutylsilane		416.45	1154.2	
1817-47-6	1-Isopropyl-4-nitrobenzene			1084.2	1.53672
1817-57-8	4-Phenyl-3-butyn-2-one	277.65		1021.52	1.57622
1817-73-8	2-Bromo-4,6-dinitroaniline	426.65			
18171-59-0	Chloro(dichloromethyl)dimethylsilane	225.15	422.15	1236.92	1.4612
1818-07-1	Octyl phenyl ether	281.15	557.15	913.115	1.48752
18181-70-9	Iodofenphos	349.15			
18181-80-1	Bromopropylate	349.15		1592	
1820-09-3	4,6,6-Trimethylbicyclo[3.1.1]hept-3-en-2-ol, (1α,2α,5α)	297.15		965.725	1.490825
1821-02-9	2-Oxopentanoic acid	279.65	452.15	1097.014	
1821-12-1	Benzenebutanoic acid	324.15	569.15		
1821-27-8	4,4'-Dinitrodiphenylamine	483.15			
1821-36-9	N-Cyclohexylaniline	289.15	552.15	1015.52	1.56102
1822-74-8	(Methylthio)ethene		342.15	902.62	1.48372
1822-86-2	2-Bromo-1,3-butadiene			1397.2	1.49882
1823-91-2	α-Methylbenzeneacetonitrile		504.15	985.42	1.509525
1824-81-3	6-Methyl-2-pyridinamine	314.15	481.65		
18243-41-9	(Bromomethyl)trimethylsilane		389.65	1170.25	1.44602
1825-19-0	Methyl pentachlorophenyl sulfide	368.65			
1825-21-4	2,3,4,5,6-Pentachloroanisole	381.65			
1825-30-5	1,5-Dichloronaphthalene	380.15		1490.02	
1825-31-6	1,4-Dichloronaphthalene	340.65	561.15	1299.776	1.622876
1825-62-3	Ethoxytrimethylsilane		349.15	757.32	1.37412
1825-82-7	Trichloroethoxysilane	138.15	375.15	1227.42	1.40452
18259-05-7	2,3,4,5,6-Pentachlorobiphenyl	397.55			
18263-25-7	2-Bromohexadecanoic acid	325.95			
18264-75-0	3-Amino-1-nitroguanidine	460.95			
18282-59-2	4-Bromo-1,2-dichlorobenzene	298.15	510.15		
1829-00-1	Clayton Yellow				
1830-54-2	Dimethyl 3-oxo-1,5-pentanedioate			1185.25	1.44342
1830-95-1	Amminetrimethylboron	346.65			
18309-32-5	d-Verbenone	282.95	500.65	997.82	1.499318
18323-44-9	Clindamycin				
18328-90-0	N-Ethyl-2-methylallylamine		377.85	753	1.42212
1833-51-8	(Chloromethyl)dimethylphenylsilane		498.15	1024.025	
1836-75-5	Nitrofen	344.15			
18362-97-5	Isopropyl pentanoate			857.92	1.40612
18378-89-7	Mithramycin	455.15			
1838-59-1	Allyl formate		356.75	946.02	
1838-73-9	3-Methyl-4-heptanol		438.15	832.925	1.421125
18388-45-9	Allyldiethoxymethylsilane		428.15	857.225	1.41042
18397-07-4	Curan-17-ol, (16α)				
1840-42-2	Trinitrofluoromethane		359.45	1592	
18423-69-3	Cubebin	404.65			
1843-05-6	[2-Hydroxy-4-(octyloxy)phenyl]phenylmethanone	321.65			
18435-45-5	1-Nonadecene	296.55	604.15	788.625	1.444525
18444-79-6	β-Vetivone	317.65		1000.12	1.53092
1845-30-3	4,6,6-Trimethylbicyclo[3.1.1]hept-3-en-2-ol, (1α,2β,5α)	288.65		968.425	1.491225
18479-51-1	3,7-Dimethyl-6-octen-3-ol			869.515	1.456915
18479-57-7	2,6-Dimethyl-2-octanol			802.325	1.422025
1848-84-6	2-Ethyl-1H-benzimidazole	449.65			
18492-37-0	(±)-Fenchone	279.25	466.65	949.215	1.47022
18495-30-2	1,1,2,3-Tetrachloropropane		454.15	1513.17	1.503717
1850-14-2	Tetramethoxymethane	270.65	405.15	1023.25	1.38452
1851-07-6	Nicotinamide hypoxanthine dinucleotide				
1852-53-5	Androstane-3,17-diol, (3α,5α,17β)	496.15			
18530-30-8	d-Camphocarboxylic acid	400.65			
18530-56-8	Norea	441.85			
1854-26-8	Dimethyloldihydroxyethyleneurea				
1855-63-6	1-Cyclohexenecarbonitrile				
18598-63-5	Methyl L-cysteine hydrochloride	413.65			
1860-27-1	1-(1-Methylethoxy)butane		380.15	759.415	1.387015
1861-21-8	Enallylpropymal	329.65			
1861-32-1	Dimethyl tetrachloroterephthalate	431.35			
1861-40-1	Balan	338.75			
1864-92-2	3-Ethoxy-N,N-diethylaniline		559.15		1.532525
1864-94-4	Phenyl formate		449.15		
1866-15-5	Acetyl thiocholine iodide	478.15			
1866-31-5	Allyl trans-cinnamate			1048.23	1.5302
1866-39-3	trans-p-Methylcinnamic acid	471.65			
1868-53-7	Dibromofluoromethane	195.15	338.05	2421.2	1.46852
1871-52-9	1,3,5-Cyclooctatriene	187.15	417.15	897.125	1.503525
1871-57-4	3-Chloro-2-(chloromethyl)-1-propene	259.15	411.15	1178.22	1.4753
1871-76-7	α-Phenylbenzeneacetyl chloride	329.65			
1871-96-1	Decanedinitrile	281.15		913.2	1.44742
18720-65-5	5-Methyl-3-heptanol	181.95	427.15	842.525	1.43324
1873-25-2	1-Chloro-2-butanol		414.15	1068.25	1.44002
1873-29-6	Isobutyl isocyanate		379.15		
1873-88-7	1,1,1,3,5,5,5-Heptamethyltrisiloxane		416.15	819.42	1.38182
1873-92-3	Allylmethyldichlorosilane		392.65	1075.82	1.44192
1877-72-1	3-Cyanobenzoic acid	496.15			
1877-73-2	3-Nitrobenzeneacetic acid	390.15			
1878-65-5	3-Chlorobenzeneacetic acid	349.75			
1878-66-6	4-Chlorobenzeneacetic acid	377.95			
1878-68-8	4-Bromobenzeneacetic acid	389.15			
1878-82-6	(4-Cyanophenoxy)acetic acid	451.15			
18786-24-8	Serpentine alkaloid	448.15			
18787-64-9	3-Hexadecanone	316.15			
1879-09-0	2-tert-Butyl-4,6-dimethylphenol	295.45	520.15	917.8	1.51832
18794-84-8	β-Farnesene			836.32	1.48992
18819-45-9	Furylfuramide, (E)-	427.15			
18829-56-6	trans-2-Nonenal			846	1.45312
18839-90-2	trans-Diethylstilbestrol monomethyl ether	390.65			
18840-45-4	Penicillamine cysteine disulfide	468.15			
1885-14-9	Phenyl chloroformate				
1885-29-6	2-Aminobenzonitrile	324.15	536.15		
1885-38-7	trans-3-Phenyl-2-propenenitrile	295.15	536.95	1030.42	1.60132
1885-48-9	2-(Difluoromethoxy)-1,1,1-trifluoroethane		302.35		
18854-56-3	1,2-Dipropoxyethane		434.15	831.225	1.401325
1888-71-7	Hexachloropropene	200.25	487.35	1763.22	1.50912
18883-66-4	Streptozotocin				
1889-67-4	2,3-Dimethyl-2,3-diphenylbutane	392.15			
189-55-9	Dibenzo[a,i]pyrene	556.75			
189-64-0	Dibenzo[a,h]pyrene	591.15			
18904-54-6	Corynantheine	438.65			
18908-07-1	1-Isocyanato-3-methoxybenzene				
18908-66-2	3-(Bromomethyl)heptane				
1892-29-1	Bis(2-hydroxyethyl) disulfide	299.15			
18936-17-9	2-Methylbutanenitrile		396.15	791.315	1.39332
18937-79-6	Methyl 2-hexynoate			964.825	
1896-62-4	trans-4-Phenyl-3-buten-2-one	314.15	534.15	1009.745	1.583645
1897-45-6	Chlorothalonil	526.25	623.15	1725	
18970-44-0	1-Ethyl-2-isopropylbenzene		466.15	888.2	1.5082
1899-24-7	5-Bromo-2-furancarboxaldehyde	356.65	474.15		
19010-66-3	Lead bis(dimethyldithiocarbamate)	531.15			
1904-98-9	1H-Purine-2,6-diamine	575.15			
19044-88-3	Oryzalin	415.45			
1906-79-2	N-Ethylpyridinium bromide	384.65			
19074-59-0	Tris(2,5-dimethylphenyl) phosphate	352.95		1197.25	
191-07-1	Coronene	710.45	798.15	1371.25	
191-24-2	Benzo[ghi]perylene	553.15			
191-30-0	Dibenzo[a,l]pyrene	437.65			
1912-24-9	Atrazine	450.15			
1916-07-0	Methyl 3,4,5-trimethoxybenzoate	356.15	547.65		
19163-05-4	Methyl dimethylthioborane	189.15	344.15		
1918-00-9	3,6-Dichloro-2-methoxybenzoic acid	388.05		1572.5	
1918-02-1	4-Amino-3,5,6-trichloro-2-pyridinecarboxlic acid	491.65			
1918-16-7	Propachlor	351.15		1242.25	
1918-18-9	Methyl (3,4-dichlorophenyl)carbamate	382.75			
1918-77-0	2-Thiopheneacetic acid	337.35			
19184-10-2	cis-1-Fluoropropene		258.15		
192-65-4	Dibenzo[a,e]pyrene	520.15			
192-97-2	Benzo[e]pyrene	453.15	584.15		
19201-34-4	Dilactic acid	385.65			
1921-70-6	2,6,10,14-Tetramethylpentadecane		579.15	779.125	1.437025
19216-56-9	Prazosin	552.15			
19269-28-4	3-Methylhexanal		418.15	820.32	1.41222
1927-31-7	2'-Deoxyadenosine 5'-triphosphate				
1928-38-7	Methyl (2,4-dichlorophenoxy)acetate	392.15			
1929-73-3	2-Butoxyethyl (2,4-dichlorophenoxy)acetate			1232.2	
1929-77-7	Vernolate			952.2	
1929-82-4	Nitrapyrin	337.23			
193-39-5	Indeno[1,2,3-cd]pyrene	437.15			
19317-11-4	3,7,11-Trimethyl-2,6,10-dodecatrienal			893.18	1.4995
1932-04-3	1,2-Dipiperidinoethane	272.65	538.15	916.025	1.485325
19329-89-6	Isopentyl lactate		475.55	958.925	1.424025
1936-57-8	4-(Methylamino)phenol sulfate				
1937-54-8	Solanone			870.2	1.47552
1937-62-8	Methyl trans-9-octadecenoate	283.45		873.02	1.45132
19372-44-2	Calcium 2,4-pentanedioate				
1939-99-7	Benzenemethanesulfonyl chloride	366.15			
19395-58-5	Moquizone	409.15			
19398-53-9	2,4-Dibromopentane			1665.92	1.49872
19398-61-9	2,5-Dichlorotoluene	275.65	473.15	1253.52	1.54492
19398-77-7	3,4-Diethylhexane		433.15	747.225	1.41902
194-59-2	7H-Dibenzo[c,g]carbazole	430.15			
194-69-4	Benzo[c]chrysene	398.55			
1940-42-7	4-Bromo-2,5-dichlorophenol	343.95			
19408-74-3	1,2,3,7,8,9-Hexachlorodibenzo-p-dioxin	516.15			
1941-30-6	Tetrapropylammonium bromide	525.15			
1942-45-6	4-Octyne	170.55	406.65	750.92	1.42482
1942-46-7	5-Decyne	199.15	451.15	769.02	1.43312
1943-16-4	Chlorotrinitromethane	278.95	429.15	1676.92	1.45002
1943-83-5	2-Chloroethyl isocyanate				
19438-10-9	Methyl 3-hydroxybenzoate	346.15	554.15	1152.81	
19438-61-0	5-Methyl-1,3-isobenzofurandione	366.15	568.15		
1945-53-5	Palustric acid	437.65			
1945-77-3	Methylthymol blue, sodium salt				
19463-48-0	3-Chloro-4-hydroxy-5-methoxybenzaldehyde	442.55			
1948-33-0	2-tert-Butyl-1,4-benzenediol	401.15			
19480-01-4	Trifluoroisocyanomethane		193.15		
1949-78-6	L-Lyxose	383.15			
195-19-7	Benzo[c]phenanthrene	340.15			
1954-28-5	Etoglucid	260.15		1131.22	1.46222
19549-79-2	3,5-Dimethyl-4-heptanol		452.15	836.18	1.42832
1955-45-9	3,3-Dimethyl-2-oxetanone				
196-78-1	Benzo[g]chrysene	387.65			
1961-96-2	1-Phenyl-1H-indene				
19653-33-9	Ethyl 1-piperidinepropanoate		490.15	962.725	1.452525
19666-30-9	Oxadiazon	361.25			
1967-16-4	Chlorbufam	318.65			
19686-73-8	1-Bromo-2-propanol		419.65	1558.53	1.48012
19715-19-6	3,5-Di-tert-butyl-2-hydroxybenzoic acid	436.45			
1973-22-4	1-Bromo-2-ethylbenzene	205.65	475.15	1354.82	1.54722
19735-89-8	1,2-Dihydro-5-methyl-2-phenyl-3H-pyrazol-3-one	401.15		1260.02	1.637
1974-04-5	2-Bromoheptane	320.15	439.15	1127.72	1.45032
1975-78-6	Decanenitrile	258.75	514.15	819.92	1.42962
19752-55-7	1-Bromo-3,5-dichlorobenzene	356.15	505.15		
1977-10-2	Loxapine	382.65			
19780-11-1	2-Dodecenylsuccinic anhydride	315.15			
19780-66-6	3-Ethyl-2-methyl-1-pentene	160.25	382.35	726.22	1.41402
198-55-0	Perylene	549.15		1352.5	
19812-64-7	1,14-Tetradecanediol	358.95			
19819-98-8	2-Methylbenzeneethanol	274.15	516.65	1016.25	1.53552
1982-47-4	Chloroxuron	425.15			
1982-49-6	Siduron	408.15			
1983-10-4	Tributylfluorostannane	533.15			
19838-08-5	3-Methylpyrazinamine	447.15			
1984-59-4	1,2-Dichloro-3-methoxybenzene	304.15			
1984-65-2	1,3-Dichloro-2-methoxybenzene	283.15		1291	1.54302
1986-70-5	Calotropin	494.15			
1986-90-9	Dipentyl sulfoxide	331.15			
19889-37-3	2-Ethyl-2-methylbutanoic acid	253.15	480.15		1.42502
1989-33-9	9H-Fluorene-9-carboxylic acid	503.15			
19891-74-8	ψ,ψ-Caroten-16-ol	441.15			
1990-29-0	D-Altrose	376.65			
1992-48-9	Isopropyl silicate		457.15	877.02	
19952-47-7	4-Chloro-2-benzothiazolamine	477.15			
19961-27-4	Ethylisopropylamine		341.15		1.387225
1999-33-3	L-Glycylasparagine	489.15			
2001-32-3	3-(2-Nitrophenyl)propanoic acid	388.15			
2001-95-8	Valinomycin	460.15			
2002-24-6	Ethanolamine hydrochloride	358.15			
20020-02-4	1,2,3,4-Tetrachloronaphthalene	471.15			
2004-69-5	trans-3-Penten-1-yne		324.15		
2004-70-8	trans-1,3-Pentadiene	185.65	315.15	671.025	1.43012
20063-97-2	trans-2-Decene		446.55		
20064-19-1	Propionyl-L-carnitine				
2008-41-5	Sutan			940.225	
2008-58-4	2,6-Dichlorobenzamide	471.15			
20089-07-0	2-Methyl-1-butanethiol, (+)		392.15	842.02	1.44402
2009-83-8	6-Chloro-1-hexanol			1024.12	1.45502
20103-09-7	2,5-Dichloro-1,4-benzenediamine	443.15			
2016-42-4	Tetradecylamine	356.25	562.15	807.92	1.44632
2016-56-0	Dodecylamine, acetate	342.65			
2016-57-1	Decylamine	288.15	490.15	793.62	1.43692
2018-61-3	N-Acetyl-L-phenylalanine	446.65			
2019-34-3	3-(4-Chlorophenyl)propanoic acid	399.15			
20193-20-8	N-Ethyl-1-propanamine		358.15	720.417	1.385825
2021-28-5	Ethyl 3-phenylpropanoate		520.15	1014.72	1.49542
2022-85-7	5-Fluorocytosine				
20231-81-6	Uzarin	542.15			
20235-19-2	DL-Arabinose	437.65		1585.2	
20237-34-7	trans-1,3-Hexadiene	170.75	344.65	699.525	1.44062
2025-40-3	Ethyl 2-cyano-3-phenyl-2-propenoate	324.15		1107.625	1.5033
2027-17-0	2-Isopropylnaphthalene	288.15	541.15	975.32	1.58482
20278-89-1	3,4,5-Trimethylheptane		435.65	751.925	1.42292
2028-63-9	3-Butyn-2-ol	271.65	379.65	861.82	1.42072
20281-83-8	3-Methyl-1-pentanol, (±)-		426.15	824.22	1.411223
20281-86-1	2-Hexanol		411.15	815.92	1.41442
20281-91-8	3,3-Dimethyl-2-butanol, (±)-	278.75	393.55	812.225	1.41482
2029-94-9	3,4-Diethoxybenzaldehyde	295.15	552.15	1010.022	
20304-47-6	Calactin	544.15			
2031-62-1	Diethoxymethylsilane		371.15	829.25	
2031-67-6	Triethoxymethylsilane		415.15	894.825	1.38322
20316-18-1	Lycodine	372.15			
2032-35-1	2-Bromo-1,1-diethoxyethane		443.15	1283.2	1.43872
2032-59-9	Aminocarb	368.15			
2032-65-7	Methiocarb	394.65			
20324-33-8	Tripropylene glycol monomethyl ether		514.45		
20327-65-5	trans-1-Fluoropropene	253.15			
2033-24-1	2,2-Dimethyl-1,3-dioxane-4,6-dione	367.15			
20348-51-0	cis-2-Decene		447.35		
20354-26-1	Methazole	397.05		1242.5	
2036-41-1	5-Methylpyrimidine	303.65	426.15		
2037-31-2	3-Chlorobenzenethiol		479.15	1263.713	
2038-03-1	4-Morpholineethanamine	298.75	478.15	989.72	1.47152
2039-82-9	1-Bromo-4-vinylbenzene	278.15	486.15	1398.42	1.59472
2039-85-2	3-Chlorostyrene			1103.32	1.56252
2039-86-3	1-Bromo-3-vinylbenzene			1405.92	1.59332
2039-87-4	2-Chlorostyrene	210.05	461.75	1100.02	1.56492
2039-88-5	1-Bromo-2-vinylbenzene	220.45	488.15	1416.02	1.59272
2039-93-2	2-Phenyl-1-butene		463.15	887.25	1.52882
20395-25-9	1,1,3-Trichloropropane	214.25	419.15	1355.72	1.47182
20398-06-5	Thallium(I) ethanolate	270.15		3490	
204-02-4	1H-Perimidine	496.15			
2040-95-1	Butylcyclopentane	165.2	429.15	784.62	1.43162
2040-96-2	Propylcyclopentane	155.81	404.05	776.32	1.42662
2042-37-7	2-Bromobenzonitrile	328.65	525.15		
2043-38-1	Buthiazide	494.65			
2043-61-0	Cyclohexanecarboxaldehyde		428.15	903.52	1.44962
20442-79-9	3-Iodo-1,1'-biphenyl	299.65		1596.725	
2049-67-4	Diethyl 2-pentenedioate		510.15	1049.62	1.44112
2049-80-1	Diethyl 2-allylmalonate		495.65	1009.82	1.43052
2049-92-5	4-tert-Pentylaniline		533.65		
2049-94-7	Isopentylbenzene		469.15	856.2	1.48671
2049-95-8	(1,1-Dimethylpropyl)benzene		464.15	874.82	1.49582
2049-96-9	Pentyl benzoate		533.15		
205-82-3	Benzo[j]fluoranthene	438.35			
205-99-2	Benzo[b]fluoranthene	441.55			
2050-01-3	Isopentyl 2-methylpropanoate		442.15	862.72	
2050-08-0	Pentyl salicylate		543.15	1064.15	1.5062
2050-09-1	Isopentyl pentanoate		466.15		
2050-14-8	2,2'-Dihydroxyazobenzene	446.15			
2050-24-0	1,3-Diethyl-5-methylbenzene	199.05	478.15	874.82	1.50272
2050-43-3	N-(2,4-Dimethylphenyl)acetamide	402.45			
2050-46-6	1,2-Diethoxybenzene	317.15	492.15	1007.52	1.508325
2050-47-7	Bis(4-bromophenyl) ether	327.15	612.15	1825	
2050-60-4	Dibutyl oxalate	242.65	517.15	987.32	1.42342
2050-67-1	3,3'-Dichlorobiphenyl	302.15	593.15		
2050-68-2	4,4'-Dichlorobiphenyl	421.15	590.15	1442	
2050-69-3	1,2-Dichloronaphthalene	309.15	568.15	1314.749	1.533849
2050-72-8	1,6-Dichloronaphthalene	322.15			
2050-73-9	1,7-Dichloronaphthalene	336.65	558.65	1261.11	1.60921
2050-74-0	1,8-Dichloronaphthalene	362.15		1292.41	1.62361
2050-75-1	2,3-Dichloronaphthalene	393.15			
2050-76-2	2,4-Dichloro-1-naphthol	380.65	453.15		
2050-77-3	1-Iododecane	256.85	536.85	1254.62	1.48582
2050-87-5	Diallyl trisulfide			1084.515	
2050-92-2	Dipentylamine		477.15	777.12	1.42722
2051-24-3	Decachlorobiphenyl	579.15			
2051-25-4	1,3-Decadiene		442.15	752.3	
2051-30-1	2,6-Dimethyloctane		431.15	731.32	1.40972
2051-31-2	4-Decanol	262.15	487.15	826.12	1.43202
2051-49-2	Hexanoic anhydride	232.15	540.15	924.015	1.42972
2051-53-8	5-Isopropyl-2-methylaniline	257.15	514.15	994.22	1.53872
2051-60-7	2-Chlorobiphenyl	304.93	546.15	1149.932	
2051-61-8	3-Chlorobiphenyl	289.15	557.65	1157.925	1.618125
2051-62-9	4-Chlorobiphenyl	348.55	566.15		
2051-78-7	Allyl butanoate		415.15	901.72	1.41582
2051-79-8	N4,N4-Diethyl-2-methyl-1,4-benzenediamine, monohydrochloride				
2051-85-6	4-(Phenylazo)-1,3-benzenediol	443.15			
2051-90-3	Dichlorodiphenylmethane		572.15	1235.18	
2051-95-8	γ-Oxobenzenebutanoic acid	389.65			
2051-97-0	1-Benzyl-1H-pyrrole	287.15	520.15	1018.32	1.565524
2052-01-9	2-Bromo-2-methylpropanoic acid	321.65	472.15	1496.96	
2052-06-4	4-Bromo-N,N-diethylaniline	311.15	543.15		
2052-07-5	2-Bromobiphenyl	273.95	570.15	1217.526	1.624825
2052-14-4	Butyl 2-hydroxybenzoate	267.25	544.15	1072.82	1.51152
2052-15-5	Butyl 4-oxopentanoate		510.65	973.52	1.42902
2052-49-5	Tetrabutylammonium hydroxide				
2055-40-5	4-Isopropylstyrene	228.45	480.15	885.02	1.52892
2055-46-1	3,4,5,6-Tetrahydro-2(1H)-pyrimidinethione	484.15		1332	
20562-02-1	Solanine				
2057-43-4	2-(3-Pentenyl)pyridine		489.15	923.425	1.507625
2057-49-0	4-(3-Phenylpropyl)pyridine		595.15	1024.25	1.561625
206-44-0	Fluoranthene	383.35	653.15	1252	