CASRN	Chemical	Tm	Tb	rho
13451-05-3	Strontium tungstate			6187
13451-11-1	Tantalum(V) bromide	513.15	621.95	4670
13451-18-8	Tellurium trioxide	703.15		5070
13451-19-9	Terbium(III) nitrate hexahydrate	362.15		
13453-06-0	Ammonium tellurate			3024
13453-07-1	Gold(III) chloride			4700
13453-30-0	Thallium(I) chlorate			5500
13453-32-2	Thallium(III) chloride	428.15		4700
13453-34-4	Thallium(I) cyanide			6523
13453-40-2	Thallium(I) perchlorate	774.15		4890
13453-49-1	Thorium(IV) bromide	952.15		
13453-69-5	Lithium metaborate	1117.15		2180
13453-71-9	Lithium chlorate	400.75		1119
13453-78-6	Lithium perchlorate trihydrate			1840
13453-80-0	Lithium dihydrogen phosphate			2461
13453-84-4	Lithium orthosilicate	1529.15		2390
13454-74-5	Cerium(III) tungstate	1362.15		6770
13454-75-6	Cesium bromate			4110
13454-81-4	Cesium iodate			4850
13454-83-6	Cesium nitrite	679.15		
13454-84-7	Cesium perchlorate			3327
13454-88-1	Copper(II) fluoride dihydrate			2934
13454-89-2	Copper(II) iodate			5241
13454-90-5	Copper(II) iodate monohydrate			4872
13454-94-9	Cerium(III) sulfate octahydrate			2870
13454-96-1	Platinum(IV) chloride pentahydrate			2430
13454-99-4	Phosphorus(V) dichloride trifluoride	148.15	280.25	6.494
13455-00-0	Diphosphorus tetraiodide	398.65		3890
13455-01-1	Phosphorus(III) iodide	334.35		4180
13455-03-3	Phosphoryl bromide dichloride	284.15	409.65	2104.14
13455-04-4	Phosphoryl iodide	326.15		
13455-12-4	Platinum(II) bromide			6650
13455-15-7	Platinum(IV) fluoride	873.15		
13455-20-4	Potassium dithionate			2270
13455-21-5	Potassium fluoride dihydrate			2500
13455-25-9	Cobalt(II) chromite			5140
13455-28-2	Cobalt(II) iodate			5090
13455-31-7	Cobalt(II) perchlorate			3330
13455-34-0	Cobalt(II) sulfate monohydrate			3080
13460-50-9	Metaboric acid (γ form)	509.15		2487
13462-88-9	Nickel(II) bromide	1236.15		5100
13462-90-3	Nickel(II) iodide	1073.15		5220
13462-93-6	Ammonium dihydrogen arsenate			2311
13463-12-2	Iron(II) bromide hexahydrate			4640
13463-22-4	Barium oxalate monohydrate			2660
13463-30-4	Lead(IV) chloride	258.15		
13463-39-3	Nickel carbonyl [Ni(CO)4]	253.85		1312.5
13463-40-6	Iron pentacarbonyl	252.65	376.15	1520
13464-36-3	Potassium arsenate			2800
13464-45-4	Zinc arsenate octahydrate			3330
13464-46-5	Americium(III) chloride	773.15		5870
13464-80-7	Dihydrazine sulfate	377.15		
13464-82-9	Indium(III) sulfate			3440
13464-97-6	Hydrazine nitrate	343.15		
13465-05-9	Hydrogen chloride dihydrate	255.45		1460
13465-07-1	Hydrogen disulfide		343.85	1334
13465-09-3	Indium(III) bromide	693.15		4740
13465-10-6	Indium(I) chloride	498.15	881.15	4190
13465-11-7	Indium(II) chloride	508.15		3640
13465-15-1	Indium(III) perchlorate octahydrate	353.15		
13465-30-0	Mercury(II) chlorate			4998
13465-49-1	Rubidium permanganate			3240
13465-55-9	Samarium(III) chloride hexahydrate			2380
13465-58-2	Samarium(III) sulfate octahydrate			2930
13465-59-3	Scandium bromide	1242.15		9330
13465-66-2	Selenium tetrafluoride	263.65	374.75	2750
13465-71-9	Trifluorosilane	142.15	178.15	3.519
13465-72-0	Triiodosilane	281.15		
13465-73-1	Bromosilane	179.15	275.05	4.538
13465-74-2	Bromotrichlorosilane	211.15	353.45	1826
13465-75-3	Dibromodichlorosilane	227.65	377.15	2172
13465-76-4	Tribromochlorosilane	252.35	400.15	2497
13465-77-5	Hexachlorodisilane	275.65	419.15	
13465-78-6	Chlorosilane	155.15	242.75	2.721
13465-84-4	Tetraiodosilane	393.65	560.5	4100
13465-85-5	Trichloroiodosilane	213.15	386.65	
13465-93-5	Silver(I) tungstate	893.15		
13465-94-6	Barium nitrite	540.15		3234
13465-95-7	Barium perchlorate	778.15		3200
13465-96-8	Silver(I) metaphosphate	763.15		6370
13466-08-5	Sodium bromide dihydrate			2180
13466-20-1	Barium metaphosphate	1833.15		
13466-21-2	Barium pyrophosphate	1703.15		3900
13469-98-2	Yttrium bromide	1177.15		
13470-01-4	Strontium iodate			5045
13470-04-7	Strontium molybdate	1313.15		4540
13470-06-9	Strontium nitrite			2800
13470-08-1	Titanium(III) fluoride			2980
13470-11-6	Tungsten(V) bromide	559.15	606.15	
13470-12-7	Tungsten(II) chloride			5440
13470-13-8	Tungsten(IV) chloride			4620
13470-14-9	Tungsten(V) chloride	526.15	559.15	3880
13470-17-2	Tungsten(II) iodide			6790
13470-19-4	Uranium(III) bromide	1000.15		
13470-20-7	Uranium(IV) bromide	792.15		
13470-21-8	Uranium(V) chloride	560.15		
13470-22-9	Uranium(IV) iodide	779.15		
13470-26-3	Vanadium(III) bromide			4000
13470-38-7	Yttrium iodide	1270.15		
13472-31-6	Sodium periodate trihydrate			3220
13472-33-8	Sodium perrhenate	573.15		5390
13472-35-0	Sodium dihydrogen phosphate dihydrate			1910
13472-45-2	Sodium tungstate	968.15		4180
13476-01-2	Cobalt(II) bromate hexahydrate			2500
13476-99-8	Vanadium(III) 2,4-pentanedioate	458.15		1000
13477-00-4	Barium chlorate	687.15		
13477-09-3	Barium hydride	1473.15		4160
13477-17-3	Cadmium phosphate	1773.15		
13477-19-5	Cadmium metasilicate	1525.15		5100
13477-28-6	Calcium bromide hexahydrate			2290
13477-29-7	Calcium chloride monohydrate			2240
13477-34-4	Calcium nitrate tetrahydrate			1820
13477-36-6	Calcium perchlorate			2650
13477-75-3	Aluminum phosphate dihydrate			2540
13477-89-9	Neodymium(III) chloride hexahydrate			2300
13477-91-3	Neodymium(III) sulfate octahydrate			2850
13477-94-6	Nickel(II) chlorate hexahydrate			2070
13477-98-0	Nickel(II) iodate			5070
13477-99-1	Nickel(II) iodate tetrahydrate			5070
13478-00-7	Nickel(II) nitrate hexahydrate			2050
13478-04-1	Cesium periodate			4260
13478-10-9	Iron(II) chloride tetrahydrate			1930
13478-14-3	Lithium arsenate			3070
13478-16-5	Magnesium ammonium phosphate hexahydrate			1710
13478-17-6	Molybdenum(II) chloride			3710
13478-18-7	Molybdenum(III) chloride			3740
13478-20-1	Phosphoryl fluoride			4.25
13478-28-9	Chromium(II) iodide	1140.15		5100
13478-33-6	Cobalt(II) perchlorate hexahydrate			3330
13478-38-1	Copper(II) nitrate hexahydrate			2070
13478-41-6	Copper(I) fluoride			7100
13478-45-0	Niobium(V) bromide	527.15	634.75	4360
13478-49-4	Erbium sulfate			3680
13478-50-7	Lead(II) thiosulfate			5180
13492-25-6	Mercury(I) nitrite			7300
134929-59-2	Fullerene fluoride	560.15		
13494-80-9	Tellurium	722.66	1261.15	6232
13497-91-1	Diphosphorus tetrachloride	245.15		
13498-11-8	Phosphorus(V) chloride tetrafluoride	141.15	229.75	5.821
13510-35-5	Indium(III) iodide	480.15		4690
13510-41-3	Praseodymium(III) sulfate octahydrate			2830
13510-42-4	Rubidium perchlorate	823.15		2900
13510-43-5	Hexaiododisilane	523.15		
13510-44-6	Silver(I) arsenate			6657
13510-49-1	Beryllium sulfate	1400.15		2500
13510-89-9	Lead(II) antimonate			6580
13517-06-1	Sodium iodide dihydrate			2450
13517-10-7	Boron triiodide	322.85	482.65	3350
13517-13-0	Hexabromosilane	368.15	538.15	
13517-27-6	Zinc bromate hexahydrate	373.15		2570
13520-56-4	Iron(III) sulfate nonahydrate			2100
13520-76-8	Tungsten(VI) dioxydichloride	538.15		4670
13520-77-9	Tungsten(VI) oxytetrabromide	550.15	600.15	5500
13520-78-0	Tungsten(VI) oxytetrachloride	483.15	503.15	11920
13520-79-1	Tungsten(VI) oxytetrafluoride	378.15	459.05	5070
13520-83-7	Uranyl nitrate hexahydrate	333.15		2810
13520-87-1	Vanadyl chloride		400.15	1720
13520-90-6	Vanadyl tribromide	214.15	443.15	
13520-92-8	Zirconyl chloride octahydrate			1910
13530-57-9	Rubidium aluminum sulfate			3100
13530-65-9	Zinc chromate	589.15		3400
13536-53-3	Praseodymium(III) bromide	966.15		5280
13536-59-9	Hydrogen bromide-d	185.61	206.25	
13536-61-3	Sulfuryl bromide fluoride	187.15	314.15	
13536-73-7	Erbium bromide	1223.15	1733.15	
13536-79-3	Lanthanum bromide	1061.15		5100
13536-80-6	Neodymium(III) bromide	955.15	1813.15	5300
13537-09-2	Dysprosium(III) hydride			7100
13537-15-0	Europium(III) sulfate			4990
13537-18-3	Thulium(III) chloride	1118.15		
13537-23-0	Phosphorus(V) trichloride difluoride	210.15		
13537-30-9	Fluorogermane			3.868
13537-32-1	Fluorophosphonic acid			1820
13537-33-2	Fluorosilane		174.55	2.048
13550-28-2	Lithium bromate	533.15		
13550-31-7	Phosphoryl dibromide chloride	304.15	438.15	
13550-53-3	Erbium hydride			7600
13565-96-3	Bismuth molybdate			9320
13566-17-1	Lead(II) orthosilicate	1016.15		7600
13568-32-6	Manganese(II) orthosilicate			4110
13568-33-7	Lithium nitrite	495.15		
13568-40-6	Lithium molybdate	975.15		2660
13568-45-1	Lithium tungstate	1013.15		3710
13568-63-3	Magnesium vanadate			3100
13569-43-2	Bromogermane	241.15	325.15	2340
13569-49-8	Rhenium(III) bromide			6100
13569-50-1	Cerium(II) hydride			5450
13569-62-5	Plutonium(III) chloride	1033.15		5710
13569-63-6	Rhenium(III) chloride			4810
13569-70-5	Niobium(IV) chloride			3200
13569-71-6	Rhenium(IV) chloride			4900
13569-72-7	Tantalum(IV) chloride			4350
13569-75-0	Chromium(III) iodide	1130.15		5320
13569-80-7	Dysprosium(III) fluoride	1430.15		
13572-93-5	Gallium(III) hydride	258.15		
13572-98-0	Gadolinium(III) iodide	1203.15		
13573-02-9	Iodogermane	258.15	363.15	
13573-08-5	Germanium(II) iodide	701.15		5400
13573-11-0	Magnesium tungstate			6890
13586-38-4	Ammonium cobalt(II) sulfate hexahydrate			1900
13587-16-1	Lithium hydride-d	967.15		820
13587-35-4	Copper(II) tungstate			7500
13596-23-1	Octachlorotrisilane	206.15	489.15	
13597-20-1	Niobium(V) oxychloride			3720
13597-46-1	Zinc selenite	894.15		
13597-54-1	Zinc selenate pentahydrate			2590
13597-55-2	Strontium orthosilicate			4500
13597-64-3	Cesium molybdate	1229.45		
13597-65-4	Zinc orthosilicate	1782.15		4100
13597-73-4	Disiloxane	129.15	257.95	3.197
13597-87-0	2-Silyltrisilane	173.75	374.85	792
13597-99-4	Beryllium nitrate trihydrate	303.15		
13598-22-6	Beryllium sulfide			2360
13598-33-9	Strontium hydride	1323.15		3260
13598-36-2	Phosphonic acid	347.55	473.15	1650
13598-42-0	Iodosilane	216.15	318.75	
13598-56-6	Uranium(III) hydride			11100
13598-65-7	Ammonium perrhenate			3970
13600-89-0	Cobalt(III) ammonium tetranitrodiammine			1970
13601-13-3	Copper(II) ferrocyanide			2200
13601-19-9	Sodium ferrocyanide decahydrate			1460
13628-54-1	Gadolinium(III) sulfate			4100
13637-63-3	Chlorine pentafluoride	170.15	260.05	5.332
13637-65-5	Chlorogermane	221.15	301.15	1750
13637-68-8	Molybdenum(VI) dioxydichloride	449.15	523.15	3310
13637-71-3	Nickel(II) perchlorate hexahydrate	413.15		
13637-76-8	Lead(II) perchlorate trihydrate			2600
13637-83-7	Chloryl fluoride	158.15	267.15	3.534
13637-84-8	Sulfuryl chloride fluoride	148.45	280.25	1620
13637-87-1	Nitrogen chloride difluoride	78.15	206.15	3.575
13675-47-3	Copper(II) dichromate dihydrate			2286
13693-05-5	Platinum(VI) fluoride	334.45	342.25	4000
13693-06-6	Plutonium(VI) fluoride	324.75		5080
13693-07-7	Rhodium(VI) fluoride	343.15		3100
13693-08-8	Ruthenium(VI) fluoride	327.15		3540
13693-09-9	Xenon hexafluoride	322.63	348.75	3560
13701-67-2	Tetrachlorodiborane	180.55	339.65	
13701-86-5	Tungsten(VI) bromide	582.15		6900
13701-90-1	Thallium(III) bromide tetrahydrate			3650
13702-38-0	Bismuth arsenate			7140
13706-09-7	Phosphorothioc bromide difluoride	136.25	308.65	
13706-10-0	Phosphorothioc dibromide fluoride	197.95	398.45	
13708-63-9	Terbium(III) fluoride	1448.15	2553.15	
13708-80-0	Americium(III) fluoride	1666.15		9530
13709-31-4	Vanadyl trifluoride	573.15	753.15	2459
13709-35-8	Sulfur fluoride (FSSF)	140.15	288.15	4.174
13709-36-9	Xenon difluoride			4320
13709-38-1	Lanthanum fluoride	1766.15		5900
13709-42-7	Neodymium(III) fluoride	1650.15	2573.15	6510
13709-45-0	Promethium(III) fluoride	1611.15		
13709-46-1	Praseodymium(III) fluoride	1672.15		6300
13709-47-2	Scandium fluoride	1825.15		
13709-49-4	Yttrium fluoride	1428.15		4000
13709-52-9	Hafnium(IV) fluoride	1298.15		7100
13709-54-1	Sulfur fluoride oxide [SOF4]	173.55	224.65	1860
13709-56-3	Plutonium(IV) fluoride	1310.15		7100
13709-59-6	Thorium(IV) fluoride	1383.15	1953.15	6100
13709-61-0	Xenon tetrafluoride			4040
13709-94-9	Potassium metaborate	1220.15		2300
13718-22-4	Rubidium molybdate	1231.15		
13718-26-8	Sodium vanadate(V)	903.15		
13718-50-8	Barium iodide	984.15		5150
13718-70-2	Iron(II) molybdate	1388.15		5600
13721-39-6	Sodium orthovanadate	1133.15		
13746-66-2	Potassium ferricyanide			1890
13755-29-8	Sodium tetrafluoroborate	657.15		2470
13755-32-3	Barium tetracyanoplatinate(II) tetrahydrate			2076
13755-38-9	Sodium nitroferricyanide dihydrate			1720
13759-10-9	Silicon disulfide	1363.15		2040
13759-83-6	Samarium(III) nitrate hexahydrate	351.15		
13759-87-0	Samarium(III) bromide	913.15		
13759-90-5	Europium(III) iodide	1148.15		
13759-92-7	Europium(III) chloride hexahydrate	1123.15		4890
13760-02-6	Diiodosilane	272.15	423.15	
13760-41-3	Protactinium(V) chloride	579.15		3740
13760-78-6	Holmium fluoride	1416.15		7664
13760-79-7	Thulium(III) fluoride	1431.15		
13760-80-0	Ytterbium(III) fluoride	1430.15		8200
13760-81-1	Lutetium fluoride	1455.15	2473.15	8300
13760-83-3	Erbium fluoride	1419.15		7800
13762-12-4	Cobalt(II) bromide hexahydrate			2460
13762-14-6	Cobalt(II) molybdate	1313.15		4700
13762-26-0	Zirconium(II) chloride	995.15		3160
13762-51-1	Potassium borohydride			1110
13762-65-7	Hydrazine perchlorate hemihydrate	410.15		1940
13762-75-9	Lithium metaphosphate			1800
13763-23-0	Uranium(VI) chloride	450.15		3600
13763-67-2	Cesium chlorate	615.15		3570
13765-03-2	Lithium iodate	723.15		4502
13765-24-7	Samarium(III) fluoride	1579.15		
13765-25-8	Europium(III) fluoride	920.15		
13765-26-9	Gadolinium(III) fluoride	1505.15		
13765-74-7	Silver(I) molybdate	756.15		6180
13767-32-3	Zinc molybdate			4300
13767-34-5	Copper(II) molybdate	773.15		3400
13768-38-2	Osmium(VI) fluoride	306.55	320.65	4100
13768-86-0	Selenium trioxide	391.15		3440
13768-94-0	Dibromosilane	203.05	339.15	
13769-20-5	Europium(II) chloride	1004.15		4900
13769-36-3	Dibromogermane	258.15	362.15	2800
13769-75-0	Phosphoryl chloride difluoride	176.75	276.25	4.922
13769-76-1	Phosphoryl dichloride fluoride	193.05	326.05	
13770-56-4	Arsenic diiodide	410.15		
13770-96-2	Sodium aluminum hydride			1240
13773-69-8	Yttrium nitrate tetrahydrate			2680
13773-81-4	Krypton difluoride			3240
13774-85-1	Xenon oxytetrafluoride	226.95		3170
13775-06-9	Uranium(III) fluoride	1768.15		8900
13775-07-0	Uranium(V) fluoride	621.15		5810
13775-18-3	Uranium(III) iodide	1039.15		
13775-53-6	Sodium hexafluoroaluminate	1286.15		2970
13775-80-9	Hydrazine hydrobromide	357.15		2300
13776-58-4	Xenon trioxide			4550
13776-62-0	trans-Difluorodiazine	101.15	161.7	2.698
13776-74-4	Magnesium metasilicate			3190
13777-22-5	Hafnium(IV) bromide			4900
13777-23-6	Hafnium(IV) iodide			5600
13777-25-8	Zirconium(IV) bromide			3980
13779-10-7	Promethium(III) chloride	928.15		
13779-41-4	Difluorophosphoric acid			1583
13779-87-8	Zirconium(III) iodide	1000.15		
13779-92-5	Niobium(V) iodide	600.15		5320
13780-03-5	Calcium hydrogen sulfite			1060
13780-06-8	Calcium nitrite	665.15		2230
13780-48-8	Europium(II) bromide	956.15		
13780-57-9	Sulfur chloride pentafluoride	209.15	254.1	6.642
13782-01-9	Cobalt(III) potassium nitrite sesquihydrate			2600
13782-33-7	trans-Dichlorodiamminepalladium(II)			2500
13783-04-5	Titanium(II) bromide			4000
13783-07-8	Titanium(II) iodide			5020
13798-24-8	Terbium(III) chloride hexahydrate			4350
13812-43-6	cis-Difluorodiazine		167.4	2.698
13813-22-4	Lanthanum iodide	1051.15		5600
13813-23-5	Praseodymium(III) iodide	1011.15		5800
13813-24-6	Neodymium(III) iodide	1060.15		5850
13813-25-7	Samarium(III) iodide	1123.15		
13813-40-6	Terbium(III) iodide	1228.15		5200
13813-41-7	Holmium iodide	1267.15		5400
13813-42-8	Erbium iodide	1287.15		5500
13813-43-9	Thulium(III) iodide	1294.15		
13813-45-1	Lutetium iodide	1323.15		5600
13813-46-2	Plutonium(III) iodide	1050.15		6920
13813-47-3	Americium(III) iodide	1223.15		6900
13814-22-7	Zirconium(III) fluoride	1200.15		4260
13814-72-7	Gadolinium(II) iodide	1104.15		
13814-74-9	Molybdenum(V) oxytrichloride	583.15		
13814-75-0	Molybdenum(VI) oxytetrachloride	378.15	432.15	
13814-76-1	Rhenium(VI) oxytetrachloride	302.45	496.15	
13816-38-1	Antimony(III) iodide sulfide	673.15		
13817-37-3	Cobalt(II) fluoride tetrahydrate			2220
13818-73-0	Promethium(III) iodide	968.15		
13818-75-2	Gadolinium(III) bromide	1058.15		4560
13818-89-8	Digermane	164.15	302.15	
13819-84-6	Molybdenum(V) fluoride	318.82	486.75	3500
13820-41-2	Ammonium tetrachloroplatinate(II)			2936
13820-62-7	Cobalt(II) aluminate			4370
13824-36-7	Difluorosilane	151.15	195.35	2.783
13824-57-2	Molybdenum(VI) dioxydifluoride			3500
13824-74-3	Diphosphorus tetrafluoride	186.65	266.95	5.638
13825-25-7	Rubidium nitrite	695.15		
13825-74-6	Titanium(IV) oxysulfate monohydrate			2710
13825-76-8	Holmium bromide	1192.15	1743.15	
13826-63-6	Thallium(I) nitrite	459.15		5700
13826-83-0	Ammonium tetrafluoroborate			1871
13842-75-6	Niobium(IV) bromide			4720
13842-76-7	Tantalum(IV) bromide	665.15		5770
13842-80-3	Vanadium(II) fluoride	1763.15		
13842-83-6	Plutonium(III) fluoride	1669.15		9330
13842-88-1	Niobium(IV) fluoride			4010
13842-93-8	Technetium(VI) fluoride	310.55	328.45	3000
13842-94-9	Zirconium(II) fluoride	1175.15		
13845-17-5	Barium dithionate dihydrate			4540
13847-57-9	Lead(II) chloride fluoride			7050
13847-65-9	Trifluoramine oxide	112.15	185.65	3.556
13847-66-0	Thallium(I) azide	607.15		
13862-78-7	Ammonium tetrathiotungstate			2710
13863-41-7	Bromine chloride	207.15		
13863-59-7	Bromine fluoride			4.043
13863-88-2	Silver azide			4900
13864-01-2	Lanthanum hydride			5360
13870-13-8	Hafnium(IV) silicate	3031.15		7000
13870-21-8	Niobium(IV) iodide	776.15		5600
13870-24-1	Iron(II) tungstate			7510
13871-27-7	Sodium tetrafluoroberyllate	848.15		2470
13874-75-4	Samarium(II) chloride	1128.15		3690
13874-77-6	Ytterbium(II) chloride	994.15		5270
13875-06-4	Xenon dioxydifluoride			4100
13896-65-6	Ruthenium(III) iodide			6000
13918-22-4	Manganese(II) tungstate			7200
13939-06-5	Molybdenum carbonyl	421.15		1960
13940-63-1	Germanium(II) fluoride	383.15		3640
13940-89-1	Iron(II) fluoride tetrahydrate			2200
13963-57-0	Aluminum 2,4-pentanedioate	467.75	588.15	1270
13963-58-1	Potassium hexacyanocobaltate			1910
13965-73-6	Tetrafluorodiborane	217.15	239.15	3.99
13966-94-4	Indium(I) iodide	637.55	985.15	5320
13967-25-4	Mercury(I) fluoride			8730
13967-50-5	Potassium cyanoaurite			3450
13972-68-4	Cadmium molybdate			5400
13973-87-0	Bromine azide	318.15		
13981-95-8	Tantalum hydride			15100
13983-20-5	Hydrogen-d1	16.6	22.13	0.123
13986-18-0	Zinc fluoride tetrahydrate			2300
13986-26-0	Zirconium(IV) iodide	773.15		4850
14013-15-1	Manganese(II) molybdate			4050
14014-18-7	Phosphoryl bromide difluoride	188.35	304.75	
14014-19-8	Phosphoryl dibromide fluoride	155.95	383.25	
14014-88-1	Ruthenium(III) bromide			5300
14024-17-0	Iron(II) 2,4-pentanedioate	443.15		
14024-18-1	Iron(III) 2,4-pentanedioate	452.15		5240
14024-48-7	Cobalt(II) 2,4-pentanedioate	440.15		
14038-43-8	Iron(III) ferrocyanide			1800
14040-11-0	Tungsten carbonyl			2650
14049-36-6	Chlorotrifluorosilane	135.15	203.15	4.927
14055-74-4	Molybdenum(II) iodide	973.15		5280
14055-75-5	Molybdenum(III) iodide	1200.15		
14059-33-7	Bismuth vanadate			6250
14075-53-7	Potassium fluoroborate	843.15		2505
14077-39-5	Europium(II) fluoride	1653.15		6500
141-53-7	Sodium formate	530.45		1920
14104-45-1	Hydrogen iodide-d	221.22	236.95	
14168-73-1	Magnesium sulfate monohydrate			2570
14188-40-0	Chlorotrifluorogermane	206.95	252.85	6.747
142-72-3	Magnesium acetate			1500
14215-29-3	Cadmium azide			3240
14215-30-6	Copper(II) azide			2600
14220-21-4	Rhenium pentacarbonyl bromide	363.15		
14249-98-0	Tungsten(V) oxytrichloride			4600
142617-56-9	Bismuth hexafluoro-2,4-pentanedioate	369.15		
14280-53-6	Indium(I) bromide	558.15	929.15	4960
14284-06-1	Copper(II) ethylacetoacetate	465.15		
14284-93-6	Ruthenium(III) 2,4-pentanedioate	503.15		
14285-68-8	Rhenium carbonyl			2870
143-33-9	Sodium cyanide	835.15		1600
14307-33-6	Calcium dichromate trihydrate			2370
14312-00-6	Cadmium chromate			4500
14324-82-4	Copper(II) 1,1,1-trifluoro-2,4-pentanedioate	470.15		
14325-78-1	Promethium(III) bromide	898.15		
14335-40-1	Phosphorus(III) chloride difluoride	108.35	225.85	4.268
14355-29-4	Tetrabromodiborane	274.15		
144-55-8	Sodium hydrogen carbonate	800.15		2200
14402-75-6	Potassium tetracyanocadmate	723.15		1850
14405-43-7	Gallium(III) 2,4-pentanedioate	466.15		1420
14446-13-0	Strontium permanganate trihydrate			2750