CASRN	Name	Tm	Tb	rho	RI
2417-04-1	3,3',5,5'-Tetramethyl-[1,1'-biphenyl]-4,4'-diol	494.95			
2417-90-5	3-Bromopropanenitrile			1615.22	1.48002
2419-73-0	1,4-Dichloro-2,3-butanediol	399.65			
2421-28-5	3,3',4,4'-Benzophenonetetracarboxylic acid dianhydride	489.15			
2422-79-9	12-Methylbenz[a]anthracene	423.65			
2424-92-2	Eicosanedioic acid	398.65			
2425-06-1	Captafol	432.15			
2425-25-4	Acetoxon				
2425-54-9	1-Chlorotetradecane	278.05	569.15	865.42	1.44742
2425-74-3	N-tert-Butylformamide	289.15	475.15	903	1.43302
2425-79-8	1,4-Butanediol diglycidyl ether		539.15	1125	1.46112
24259-59-4	L-Ribose	354.15			
2426-02-0	4,5,6,7-Tetrahydro-1,3-isobenzofurandione	343.45		1210.5	
2426-08-6	Butyl glycidyl ether		444.15	918.2	
2426-54-2	2-(Diethylamino)ethyl acrylate	213.15		937.2	1.437625
24280-93-1	Mycophenolic acid	414.15			
243-17-4	11H-Benzo[b]fluorene	488.15	674.15		
24307-26-4	Mepiquat chloride	496.15			
2431-50-7	2,3,4-Trichloro-1-butene			1343.02	1.49442
24313-88-0	3,4,5-Trimethoxyaniline	385.95			
2432-12-4	2,6-Dichloro-4-methylphenol	312.15	504.15		
2432-63-5	Dipropyl maleate			1024.52	1.44342
2432-74-8	6-Aminohexanenitrile				
2432-87-3	Dioctyl sebacate	291.15		907.425	
2432-90-8	Didodecyl phthalate	295.15		938.92	
2432-99-7	11-Aminoundecanoic acid	462.15			
24324-17-2	9H-Fluorene-9-methanol	376.57			
2435-53-2	3,4,5,6-Tetrachloro-3,5-cyclohexadiene-1,2-dione	403.65			
2436-79-5	Diethyl 3,5-dimethylpyrrole-2,4-dicarboxylate	410.95			
2436-85-3	N,N-Dimethyl-2-naphthylamine	314.65	577.15	1027.96	1.644353
2436-90-0	3,7-Dimethyl-1,6-octadiene			760.12	1.43622
2436-96-6	2,2'-Dinitro-1,1'-biphenyl	400.15	578.15	1452.5	
2437-25-4	Dodecanenitrile	277.15	549.25	824.02	1.43612
2437-56-1	1-Tridecene	250.08	505.95	765.82	1.43402
2437-88-9	1,3,5-Triethoxybenzene	316.65			
2438-12-2	α-Terpineol	308.15	491.15	933.72	1.48312
2438-72-4	4-Butoxy-N-hydroxybenzeneacetamide	427.15			
2439-01-2	Chinomethionat	443.65			
2439-10-3	Dodine	410.65			
2439-35-2	2-(Dimethylamino)ethyl acrylate	213.15		938.2	
2439-54-5	Methyloctylamine				
2439-99-8	Glyphosine				
24393-70-2	Isoborneol	485.15		1102	
244-69-9	γ-Carboline	498.15		1352	
24425-40-9	2,3-Dihydro-1H-inden-5-amine	310.65	521.15		
2444-29-3	1-Methyl-2-(4-nitrophenoxy)benzene				
2444-36-2	2-Chlorobenzeneacetic acid	367.35			
2444-37-3	(Methylthio)acetic acid	286.15		1221.2	1.4952
24442-57-7	1,2-Dibromoethyl acetate			1912	
2445-76-3	Hexyl propanoate	215.65	461.15	869.82	1.416215
2445-83-2	7-Methyl-2H-1-benzopyran-2-one	401.15			
2446-69-7	4-Hexylphenol				
2447-54-3	Sanguinarine	539.15			
2450-71-7	2-Propyn-1-amine		357.15	803.25	1.44802
24544-04-5	2,6-Diisopropylaniline	228.15	545.15	942.5	1.53322
24549-06-2	2-Ethyl-6-methylaniline	240.15	504.15	968.25	1.55252
2455-24-5	Tetrahydrofurfuryl methacrylate		538.15	1040.25	1.455425
2456-27-1	Dinonyl ether		591.15	810	1.43562
2456-28-2	Didecyl ether	289.15		818.72	
2459-05-4	Ethyl hydrogen fumarate	343.15		1110.987	
2459-09-8	Methyl 4-pyridinecarboxylate	283.35	482.15	1159.92	1.51352
2459-10-1	Trimethyl 1,2,4-benzenetricarboxylate	260.15		1261	1.52302
2459-24-7	Methyl 1-naphthalenecarboxylate	332.65		1129.02	1.60862
2459-25-8	Methyl 2-naphthalenecarboxylate	349.95	563.15		
24599-58-4	1,4-Dimethoxy-2-methylbenzene	294.15	487.15		
2460-77-7	2,5-Di-tert-butyl-2,5-cyclohexadiene-1,4-dione	425.65			
24602-86-6	2,6-Dimethyl-4-tridecylmorpholine			860	
2462-94-4	cis-11-Eicosenoic acid	297.15		882.625	
24622-72-8	1-[2-(3-Methylbutoxy)-2-phenylethyl]pyrrolidine				1.497822
2463-63-0	2-Heptenal		439.15	864.17	1.446817
2463-84-5	Dicapthon	323.65			
24634-61-5	Potassium trans,trans-2,4-hexadienoate			1361.25	
2464-37-1	Chlorflurecol			1496.2	
2465-27-2	Auramine hydrochloride	540.15			
2465-32-9	Glycerol 1,3-di-9-octadecenoate, cis,cis	323.25			
2466-76-4	1-Acetyl-1H-imidazole	377.65			
2467-02-9	2,2'-Dihydroxydiphenylmethane	391.45	636.15	1280.25	
24677-78-9	2,3-Dihydroxybenzaldehyde	381.15	508.15		
2470-68-0	Diheptylamine	304.65	539.15	795.621	
2472-88-0	Tetrabutylammonium sulfate	443.15			
2473-01-0	1-Chlorononane	233.75	477.15	867.425	1.43432
24734-68-7	Benzenepropanethiol			1012.5	1.54942
2475-44-7	1,4-Bis(methylamino)-9,10-anthracenedione				
2475-45-8	Disperse Blue No. 1	604.15			
2476-37-1	1-(2,5-Dichlorophenyl)ethanone	285.15		1321.3	1.55953
24800-44-0	Tripropylene glycol		535.15	1022	1.44402
24815-24-5	Rescinnamine	511.65			
2483-57-0	Methyl nitroacetate			1320	
24840-05-9	cis-3-Phenyl-2-propenenitrile	268.75	522.15	1028.92	1.58432
2487-90-3	Trimethoxysilane				
24887-75-0	Androstane	323.15			
2489-77-2	Trimethylthiourea	360.65			
2492-26-4	2(3H)-Benzothiazolethione, sodium salt				
2493-02-9	1-Bromo-4-isocyanatobenzene		499.15		
24934-91-6	Chlormephos				1.5244
24935-97-5	Allyl (hydroxymethyl)carbamate	330.15			
2495-25-2	Tridecyl methacrylate			881.2	1.44825
2495-27-4	Hexadecyl 2-methyl-2-propenoate	297.15		872	
2495-35-4	Benzyl acrylate		501.15	1057.32	1.51432
2495-37-6	Benzyl methacrylate				
24964-64-5	3-Formylbenzonitrile	349.65	483.15		
24965-84-2	2-Methylcyclohexanone, (±)-	259.25	437.55	925.02	1.448325
2497-18-9	trans-2-Hexen-1-ol, acetate		438.15	898	1.42702
2497-21-4	4-Hexen-3-one		411.15	855.92	1.43882
2498-66-0	Benz[a]anthracene-7,12-dione	441.15			
2499-59-4	Octyl acrylate		500.15	881.02	
2499-95-8	Hexyl acrylate	228.15		878.2	
25013-16-5	tert-Butyl-4-hydroxyanisole	324.15	541.15		
2503-56-2	5-Methyl-[1,2,4]triazolo[1,5-a]pyrimidin-7-ol	518.15			
25057-89-0	Bentazon	412.85			
2506-41-4	2-(Chloromethyl)naphthalene	321.65			
2508-29-4	5-Amino-1-pentanol	311.65	494.65	948.817	1.461817
2512-29-0	C.I. Pigment Yellow 1	529.15			
2512-56-3	4-Octylphenyl salicylate	346.15			
2512-81-4	1,2-Dimethylpiperidine, (±)-		400.65	824.15	1.43952
25144-05-2	cis-2-Methylcyclopentanol		421.65	937.916	1.450416
2516-33-8	Cyclopropanemethanol		397.15	911.25	
2516-34-9	Cyclobutanamine		356.15	832.82	1.436319
2516-96-3	2-Chloro-5-nitrobenzoic acid	439.65		1608.18	
2517-04-6	2-Azetidinecarboxylic acid				
2517-43-3	3-Methoxy-1-butanol		432.15	923.23	1.414825
2518-24-3	4-Amino-1H-isoindole-1,3(2H)-dione	542.65			
25229-42-9	3-Cyclohexyl-2-butenoic acid	358.65			
2523-37-7	9-Methyl-9H-fluorene	318.15		1026.366	1.61066
2524-03-0	O,O-Dimethyl phosphorochloridothioate			1322	1.48202
2524-04-1	O,O-Diethyl chloridothionophosphate				
2524-37-0	Ethyl 2,4-dihydroxy-6-methylbenzoate	405.15			
2524-52-9	Ethyl 2-pyridinecarboxylate	274.15	516.15	1119.42	1.51042
2524-64-3	Diphenyl chlorophosphonate			1296.25	1.55002
2524-67-6	4-(4-Morpholinyl)aniline	404.75			
25245-34-5	2-Bromo-1,4-dimethoxybenzene		535.15	1445	1.57002
2525-16-8	3,4,5,6-Tetrahydro-7-methoxy-2H-azepine			887	1.46302
2525-62-4	Hexyl isocyanate				
25265-71-8	Dipropylene glycol		504.15	1020.62	
2528-61-2	Heptanoyl chloride	189.35	398.35	959.02	1.434518
253-52-1	Phthalazine	364.45	589.15		
253-66-7	Cinnoline	311.15			
253-72-5	1,6-Naphthyridine	302.65			
253-82-7	Quinazoline	320.85	510.15		
2530-85-0	3-(Trimethoxysilyl)propyl methacrylate				
2530-87-2	(3-Chloropropyl)trimethoxysilane		364.15	1077.25	1.418325
2531-80-8	Ethyl 2-nitropropanoate		463.65		1.42102
25311-71-1	Isofenphos	261.15		1134.2	
25312-34-9	4-(2,6,6-Trimethyl-2-cyclohexen-1-yl)-3-buten-2-ol			918.92	1.47352
25312-65-6	Cholan-24-oic acid	436.65			
25316-40-9	Doxorubicin hydrochloride				
2532-58-3	cis-1,3-Dimethylcyclopentane	139.48	364.85	740.225	1.40892
25346-31-0	3-Bromo-3-methylpentane		403.15	1183.52	1.45252
25346-32-1	2-Chloro-4-methylpentane		389.15	861.02	1.41132
25346-33-2	1-Bromo-2-methylpentane		412.15	1162.42	1.44952
25354-97-6	2-Hexyldecanoic acid				1.443224
2536-91-6	6-Methyl-2-benzothiazolamine	415.15			
25394-57-4	Affinin	296.15			1.513425
25394-75-6	Alstonidine	462.15			
25395-22-6	[2-(Aminocarbonyl)phenoxy]acetic acid	494.15			
254-04-6	2H-1-Benzopyran			1099.316	1.586924
254-79-5	1,5-Naphthyridine	348.15		1210.02	
2540-82-1	Formothion	298.65		1361.2	1.55412
2541-69-7	7-Methylbenz[a]anthracene	414.15			
25414-22-6	2-Methoxyfuran		383.65	1064.625	1.446825
25415-67-2	Ethyl 4-methylpentanoate		436.15	870.52	1.40502
2545-59-7	2-Butoxyethyl (2,4,5-trichlorophenoxy)acetate			1280.2	
2547-61-7	Trichloromethanesulfonyl chloride	413.65	443.15		
25475-67-6	3-Isoquinolinamine	451.65			
2548-87-0	trans-2-Octenal			846	1.45002
2550-04-1	Allyltriethoxysilane			903.02	1.40722
2550-06-3	Trichloro(3-chloropropyl)silane		455.45	1359.02	1.46682
2550-26-7	4-Phenyl-2-butanone	260.15	508.15	984.922	1.51122
2550-28-9	5-Hexyn-2-one		422.15	906.52	1.43662
2550-36-9	(Bromomethyl)cyclohexane			1283.2	1.49073
2550-40-5	Dicyclohexyl disulfide				
2550-75-6	Chlorbicyclen	378.15			
2553-19-7	Diethoxydiphenylsilane		569.15	1032.92	1.52692
2554-06-5	2,4,6,8-Tetravinyl-2,4,6,8-tetramethylcyclotetrasiloxane	229.65	497.15	987.52	
25542-62-5	Ethyl 6-bromohexanoate	306.15		1238.23	1.456621
2555-49-9	Ethyl phenoxyacetate		520.15	1095.83	1.50802
25611-78-3	α-Phenylbenzeneethanamine		584.15	1031.15	
2565-58-4	(Chloromethyl)phosphonic acid	363.15			
25653-16-1	Tris(3,5-dimethylphenyl) phosphate	319.35			
2568-33-4	3-Methyl-1,3-butanediol		481.15	944.82	1.44522
2568-90-3	Dibutoxymethane	214.15	452.85	833.92	1.407217
2570-26-5	Pentadecylamine	309.65	585.15	810.42	1.44802
2576-47-8	2-Bromoethylamine hydrobromide	447.15			
2578-45-2	2-Chloro-3,5-dinitropyridine	339.65			
2579-20-6	1,3-Cyclohexanedimethanamine	203.15	493.15	945.2	
2579-22-8	3-Phenyl-2-propynal			1062.22	1.607912
25790-55-0	4-Chloro-1,2-butadiene		361.15	989.12	1.47752
258-31-1	Hexacene	653.15			
2581-34-2	3-Methyl-4-nitrophenol	400.95			
25812-30-0	5-(2,5-Dimethylphenoxy)-2,2-dimethylpentanoic acid	335.15			
2586-89-2	3-Heptyne	142.65	382.35	733.625	1.41892
2587-42-0	Bis[4-(hexyloxy)phenyl]diazene, 1-oxide				
2591-86-8	1-Piperidinecarboxaldehyde	242.35	494.15	1015.825	1.480525
25915-78-0	1,1-Dichloro-1,2-difluoroethane		321.55		
2592-95-2	1-Hydroxy-1H-benzotriazole	430.95			
2593-15-9	Terrazole	293.05		1503.25	
2595-54-2	Mecarbam			1223.2	
2595-97-3	D-Allose	401.15			
25953-19-9	Cefazolin				
2597-03-7	Phenthoate				
2597-97-9	Cyanomethylmercury	365.15			
260-94-6	Acridine	383.21	620.05	1005.2	
26002-80-2	Phenothrin			1061.25	1.548325
2602-46-2	C.I. Direct Blue 6, tetrasodium salt				
261-31-4	9H-Thioxanthene	401.65	614.15		
2611-00-9	3-Cyclohexenylmethyl 3-cyclohexenecarboxylate				
26116-12-1	1-Ethyl-2-pyrrolidinemethanamine			887.25	1.46652
2612-02-4	2-Hydroxy-5-methoxybenzoic acid	415.15			
2612-33-1	3-Chloro-1,2-propanediol dinitrate		465.65	1511.29	
2612-46-6	cis-1,3,5-Hexatriene	261.15	355.35	717.52	1.45772
2613-65-2	trans-1-Ethyl-3-methylcyclopentane	165.15	394.15	761.92	1.41862
2613-66-3	cis-1-Ethyl-3-methylcyclopentane		394.15	772.42	1.42032
2614-88-2	trans,trans-2,4-Hexadienoyl chloride			1066.619	1.55452
26171-23-3	Tolmetin				
26171-83-5	1,2-Butanediol, (±)-		469.57	1002.42	1.43782
26186-02-7	1-Tridecyne	274.15	507.15	784.22	1.43092
26198-63-0	1,2-Dichloropropane, (±)-	172.62	369.55	1156.02	1.43942
262-12-4	Dibenzo[b,e][1,4]dioxin	390.65			
2620-50-0	1,3-Benzodioxole-5-methanamine			1214.25	1.56352
2621-46-7	1-Chloro-4-isopropylbenzene	260.85	466.15	1020.82	1.51172
2622-08-4	Tris(o-tolyl) phosphite	284.15		1142.32	1.574028
2622-21-1	1-Vinylcyclohexene		417.15	862.315	1.49152
26225-79-6	Ethofumesate	345.65		1140	
2623-23-6	2-Isopropyl-5-methylcyclohexanol acetate, [1R-(1α,2α,5β)]		496.15	924.42	1.44692
2623-87-2	4-Bromobutanoic acid	306.15			
2623-95-2	2-Bromodecanoic acid	275.15		1191.224	1.459524
26259-45-0	sec-Bumeton	360.15			
26260-02-6	2-Iodobenzaldehyde	310.15			
2627-95-4	1,3-Divinyl-1,1,3,3-tetramethyldisiloxane	173.45	312.15	811.2	1.41232
2628-17-3	4-Hydroxystyrene	345.15			
2631-37-0	Promecarb	362.45			
2636-26-2	Ciafos	288.15			1.540432
2637-34-5	2(1H)-Pyridinethione	403.15			
2637-37-8	2(1H)-Quinolinethione	460.15			
2639-63-6	Hexyl butanoate	195.15	480.15	865.22	1.416015
26391-16-2	1,2-Dibromo-1-propene		404.65	2007.62	
26399-36-0	Profluralin	307.95			
26402-26-6	2,3-Dihydroxypropyl octanoate	313.15			
2641-01-2	Propyl Red				
2642-63-9	1-(3,4-Dichlorophenyl)ethanone	349.15			
2642-71-9	Azinphos ethyl	324.45		1284.2	
2642-98-0	6-Chrysenamine	483.65			
26438-26-6	1-Nonylnaphthalene	281.15	639.15	937.12	1.54772
26438-27-7	1-Decylnaphthalene	288.15	652.15	932.22	1.54352
26441-05-4	11-Hydroxy-9,15-dioxoprosta-5,13-dien-1-oic acid, (5Z,11α,13E)-				
26446-38-8	Sucrose monohexadecanoate	334.15			
26472-41-3	Humulon	339.65			
2648-61-5	2,2-Dichloro-1-phenylethanone	293.65	522.15	1340.16	1.56862
2650-64-8	Benzyloxycarbonyl-L-glutamine	407.65			
2652-13-3	Eicosamethylnonasiloxane		580.65	917.32	1.39802
26530-20-1	Octhilinone				
26531-85-1	6-O-β-D-Xylopyranosyl-D-glucose	483.15			
2654-58-2	4,4-Dimethyl-1-phenyl-3-pyrazolidinone	449.15			
26549-25-7	3-Heptanol, (S)-	203.15	436.15	822.72	1.42012
2655-14-3	3,5-Xylyl methylcarbamate	372.15			
2664-63-3	4,4'-Dihydroxydiphenyl sulfide	424.15			
26644-46-2	Triforine				
26655-34-5	α-D-Glucose			1562.018	
2675-77-6	Chloroneb	404.35	541.15		
26754-48-3	Tetrahydro-2,2-dimethyl-5-oxo-3-furanacetic acid	363.15			
2676-33-7	Ethyl lactate	247.15	424.15	1032.82	1.41242
26761-40-0	Diisodecyl phthalate	223.15		966.2	
2678-54-8	1,1-Diethoxyethene			793.22	1.364321
26787-78-0	Amoxicillin				
2679-87-0	sec-Butyl ethyl ether		354.15	750.32	1.38022
2680-03-7	N,N-Dimethyl-2-propenamide			962.25	1.47302
2681-83-6	2-Bromohexanoic acid, (±)-	275.15	515.15	1281.033	
26839-75-8	Timolol				
2687-25-4	3-Methyl-1,2-benzenediamine	336.65	528.15		
2688-77-9	Laudanosine	362.15			
2688-84-8	2-Phenoxyaniline	318.95	581.15		
2690-08-6	Dioctyl sulfide			842.25	1.46102
2691-41-0	Cyclotetramethylenetetranitramine	551.15			
2694-54-4	1,2,4-Benzenetricarboxylic acid, triallyl ester	243.15		1164.2	
2696-84-6	4-Propylaniline		502.15		
2698-41-1	o-Chlorobenzylidene malononitrile	369.15	585.15		
27025-41-8	Glutathione disulfide	452.15			
2706-56-1	2-Pyridineethanamine		486.15	1022.025	1.533525
271-44-3	1H-Indazole	419.25	542.15		
271-89-6	Benzofuran	255.15	445.15	1091.325	1.561517
2712-98-3	Carboimidic difluoride	183.15			
2713-09-9	Fluoroacetylene	77.15	199.15		
27138-31-4	Dipropylene glycol dibenzoate				
2718-25-4	Rheadine	530.15			
2719-27-9	Cyclohexanecarbonyl chloride		456.15	1096.215	1.471129
2724-69-8	N-Methyl-N'-phenylthiourea	385.65			
2725-82-8	1-Bromo-3-ethylbenzene		476.15	1349.32	1.54652
27255-72-7	N-(Phenylacetyl)-7-aminodeacetoxycephalosporanic acid	473.15			
27267-69-2	Collinomycin	554.15			
273-13-2	2,1,3-Benzothiadiazole	316.85	479.15		
273-53-0	Benzoxazole	302.51	458.45	1175.42	1.55942
27304-13-8	Oxychlordane	373.15			
27314-13-2	Norflurazon	451.15			
2735-04-8	2,4-Dimethoxyaniline	306.65	535.15		
2736-40-5	2-Ethylbutanoyl chloride		413.15	982.52	1.42342
2736-80-3	2,2-Dinitro-1,3-propanediol	415.15			
2738-19-4	2-Methyl-2-hexene	142.79	368.15	703.825	1.41062
27387-79-7	Butyl 3-chloropropanoate			1037.02	1.43212
274-07-7	1,3,2-Benzodioxaborole	285.15		1270.02	1.50702
274-09-9	1,3-Benzodioxole		442.15	1064.25	1.53982
274-40-8	Indolizine	348.15	478.15		
2741-16-4	Phenyl isopropyl ether	240.15	453.15	940.825	1.49752
2745-26-8	2-Furanacetic acid	341.65			
27464-82-0	2,5-Dimethyl-1,3,4-thiadiazole	338.15	475.65		
275-51-4	Azulene	372.15	522.15		
27554-26-3	Diisooctyl phthalate		643.15		
2757-90-6	Agaritine				
2758-18-1	3-Methyl-2-cyclopenten-1-one		430.65	971.22	1.47142
2759-28-6	1-Benzylpiperazine				1.543028
2761-24-2	Triethoxypentylsilane			886.22	1.40592
2763-96-4	Muscimol				
2764-72-9	Diquat				
2765-04-0	Thioacetaldehyde trimer	374.15	519.65		
2765-11-9	Pentadecanal	297.15			
2765-18-6	1-Propylnaphthalene	264.55	546.15	989.72	1.59232
2769-64-4	Butyl isocyanide		393.15	782	
2778-96-3	Octadecyl octadecanoate	333.15			
2781-00-2	1,4-Bis(α-(tert-butyldioxy)isopropyl)benzene	352.15			
2781-11-5	Diethyl [(diethanolamino)methyl]phosphonate				
2781-85-3	Cyclopropene		237.15		
2782-07-2	D-Galactonic acid, γ-lactone	385.15			
2782-57-2	1,3-Dichloro-1,3,5-triazine-2,4,6(1H,3H,5H)-trione	499.75			
2782-91-4	Tetramethylthiourea	350.45	518.15		
2783-17-7	1,12-Dodecanediamine	341.15	572.15		
2783-94-0	Sunset Yellow FCF	573.15			
2784-94-3	HC Blue No. 1	373.15			
2785-87-7	2-Methoxy-4-propylphenol				
2785-89-9	4-Ethyl-2-methoxyphenol	266.15	509.65	1093.118	
2786-76-7	C.I. Pigment Red 170				
27876-94-4	8,8'-Diapo-ψ,ψ-carotenedioic acid	559.15			
279-23-2	Bicyclo[2.2.1]heptane	360.45	380.15		
2791-29-9	1,1-Dimethoxyhexadecane	283.15		854.22	1.438225
2798-73-4	1-Methoxy-1-buten-3-yne			906.2	1.48182
280-57-9	Triethylenediamine	432.98			
28056-54-4	2,2,4-Trimethylcyclopentanone	232.55	431.15	877.25	1.43002
2806-85-1	3-Ethoxypropanal		408.35	916.52	
2807-30-9	2-Propoxyethanol		425.15	911.22	1.41332
2807-54-7	Diallyl fumarate			1076.82	1.467025
28076-73-5	Bis(2,4-dichlorophenyl)ether	344.15			
2808-76-6	1,3-Dimethylcyclohexene		399.15	799.25	1.4492
2809-21-4	1-Hydroxy-1,1-diphosphonoethane	378.15			
2809-64-5	1,2,3,4-Tetrahydro-5-methylnaphthalene	250.15	507.15	972.02	1.54392
2809-67-8	2-Octyne	211.65	411.15	759.62	1.42782
2809-69-0	2,4-Hexadiyne	337.82	402.65		
281-23-2	Tricyclo[3.3.1.13,7]decane	543.25		1072.5	1.568
2810-04-0	Ethyl thiophene-2-carboxylate		491.15	1162.316	1.52482
2814-20-2	2-Isopropyl-6-methyl-4-pyrimidinol	446.15			
2816-57-1	2,6-Dimethylcyclohexanone		448.15	925.25	1.44602
28188-41-2	3-(Bromomethyl)benzonitrile	369.65			
2819-48-9	1,2-Dimethylenecyclohexane		398.15	836.12	1.471825
2819-86-5	Pentamethylphenol	401.15	540.15		
28227-92-1	Phalloin				
28249-77-6	Thiobencarb	274.85		1162	
2825-00-5	Aureothin	431.15			
28289-54-5	1,2,3,6-Tetrahydro-1-methyl-4-phenylpyridine	314.15			
283-24-9	3-Azabicyclo[3.2.2]nonane				
28300-74-5	Antimony potassium tartrate trihydrate			2600	
28322-02-3	4-(Acetylamino)fluorene	473.15			
2834-05-1	11-Bromoundecanoic acid	330.15			
2834-92-6	1-Amino-2-naphthol				
2835-06-5	α-Aminobenzeneacetic acid, (±)-				
2835-39-4	Allyl 3-methylbutanoate		427.15		
2835-68-9	4-Aminobenzamide	456.15			
2835-81-6	DL-2-Aminobutanoic acid			1230.02	
2835-82-7	DL-3-Aminobutanoic acid	467.45			
2835-96-3	4-Amino-2-methylphenol	449.65			
2835-99-6	4-Amino-3-methylphenol	452.15			
2836-03-5	N,N-Dimethyl-1,2-benzenediamine		491.15	995.22	
2836-04-6	N,N-Dimethyl-1,3-benzenediamine	253.15	543.15	995.25	
2837-89-0	1-Chloro-1,2,2,2-tetrafluoroethane	74	261.19		
2845-89-8	3-Chloroanisole		466.65	1175.912	1.53652
28467-92-7	2-(Phenylmethylene)butanal	291.15	516.15	1020.122	1.5782
2847-72-5	4-Methyldecane	180.35	461.15		1.43522
285-67-6	6-Oxabicyclo[3.1.0]hexane		374.15	964.25	1.43362
2855-19-8	Decyloxirane				1.434725
28553-12-0	Diisononyl phthalate				
28556-81-2	2-Isocyanato-1,3-dimethylbenzene				
2856-63-5	2-Chlorobenzeneacetonitrile	297.15	524.15	1173.718	
2859-67-8	3-Pyridinepropanol		557.15	1063.25	1.53132
2859-68-9	2-Pyridinepropanol	307.15	533.35	1060.25	1.52982
2859-78-1	4-Bromo-1,2-dimethoxybenzene		527.65	1702.25	1.57432
286-08-8	Bicyclo[4.1.0]heptane		386.95	853.25	1.45642
286-20-4	7-Oxabicyclo[4.1.0]heptane	238.15	405.15	966.32	1.45192
2867-05-2	5-Isopropyl-2-methylbicyclo[3.1.0]hex-2-ene		429.15	830.12	1.45152
2867-47-2	2-(Dimethylamino)ethyl methacrylate				
2868-37-3	Methyl cyclopropanecarboxylate		385.15	984.82	1.414419
2869-34-3	(Tridecyl)amine	300.15	546.15	804.92	1.44432
287-23-0	Cyclobutane	182.45	285.65	703.8	1.3752
287-27-4	Thietane	199.96	368.15	1020.02	1.51022
287-92-3	Cyclopentane	179.75	322.35	745.72	1.40652
2870-04-4	2-Ethyl-1,3-dimethylbenzene	256.85	463.15	886.425	1.51072
2872-48-2	1,4-Diamino-2-methoxy-9,10-anthracenedione	515.15			
2873-74-7	Pentanedioyl dichloride		490.15	1324.2	1.47282
2873-97-4	N-(1,1-Dimethyl-3-oxobutyl)-2-propenamide				
2874-74-0	2-Methyldodecanoic acid	295.15		890.18	
2876-53-1	1-Hexylnaphthalene	255.15	595.15	956.62	1.56472
28772-56-7	Bromadiolone	478.15			
28788-62-7	4-Butylbenzoyl chloride			1051.25	1.53512
288-13-1	1H-Pyrazole	333.05	460.15		1.4203
288-14-2	Isoxazole		368.55	1078.2	1.429817
288-32-4	Imidazole	362.67	530.15	1030.3101	1.4801101