CASRN	Name	Tm	Tb	rho	RI
1522-46-9	Ethyl 2-acetyl-3-methylbutanoate		493.15	964.818	1.425618
15220-85-6	2-Methyl-1-propene, tetramer	175.15	517.15	794.42	1.44822
1523-11-1	2-Naphthol, acetate	342.15			
15232-76-5	3-Octyne	169.25	408.75	752.92	1.42502
1524-88-5	Flurandrenolide	524.15			
15243-01-3	Bis(ethylenediamine)copper dichloride				
15243-33-1	Ruthenium dodecacarbonyl				
1527-89-5	3-Methoxybenzonitrile			1089.25	1.54022
1528-30-9	Methylenecyclopentane		348.15	778.72	1.43552
1528-74-1	4,4'-Dinitro-1,1'-biphenyl	508.15			
1529-17-5	Trimethylphenoxysilane	218.15	392.15	868.12	1.51252
1529-41-5	3-Chlorobenzeneacetonitrile	284.65	534.15	1180.63	1.54372
15299-99-7	Napropamide	346.95			
153-61-7	Cephalothin	433.15			
153-78-6	9H-Fluoren-2-amine	403.45			
15301-40-3	8-Ethoxy-5-quinolinesulfonic acid				
1532-84-9	1-Isoquinolinamine	396.15			
1532-97-4	4-Bromoisoquinoline	314.65	555.65		
15321-51-4	Iron nonacarbonyl			2850	
15356-60-2	2-Isopropyl-5-methylcyclohexanol, [1S-(1α,2β,5α)]-	315.15	489.15		
15358-48-2	Hydroxylupanine	442.65			
1539-42-0	N-(2-Pyridinylmethyl)-2-pyridinemethanamine			1107.425	1.575725
154-17-6	2-Deoxy-D-glucose	419.65			
154-21-2	Lincomycin				
154-41-6	Phenylpropanolamine hydrochloride	467.15			
154-42-7	2-Amino-1,7-dihydro-6H-purine-6-thione	633.15			
154-93-8	N,N'-Bis(2-chloroethyl)-N-nitrosourea	304.15			
1540-28-9	Ethyl 2-acetylpentanoate		497.15	966.12	1.42552
1540-29-0	Ethyl 2-acetylhexanoate		494.65	952.32	1.43012
1540-34-7	3-Ethyl-2,4-pentanedione		452.15	953.119	1.440819
15403-89-1	5-Ethyl-2-norbornene		416.75	860	1.46302
1544-68-9	1-Fluoro-4-isothiocyanatobenzene	300.15	501.15		
15457-05-3	Fluorodifen	364.85			
15489-90-4	Hematin	473.15			
155-09-9	Tranylcypromine	317.15			
155-41-9	Methscopolamine bromide				
15500-66-0	Pancuronium dibromide	488.15			
15501-33-4	1-Iodo-2,2-dimethylpropane		403.15	1494.02	1.48902
15503-86-3	Isatidine	418.15			
1551-21-9	Isopropyl methyl sulfide	171.68	357.85	829.12	1.49322
1551-44-6	Cyclohexyl butanoate		486.15	957.2	
15521-18-3	2-(Dimethylamino)-1-propanol		423.45	882.026	
15521-65-0	Bis(dimethyldithiocarbamate)nickel				
15545-48-9	Chlortoluron	420.15			
1555-80-2	Benzeneacetic anhydride	346.45			
1556-18-9	Iodocyclopentane		439.65	1709.62	1.54472
15570-12-4	3-Methoxybenzenethiol		497.65		1.58742
15572-56-2	Isopropylamine hydrochloride	437.15			
1558-17-4	4,6-Dimethylpyrimidine	298.15	432.15		1.48802
1558-24-3	Trichloro(dichloromethyl)silane		418.15	1551.82	1.47142
1558-25-4	Trichloro(chloromethyl)silane		391.15	1465.02	1.45552
1558-31-2	Dichloro(dichloromethyl)methylsilane		422.15	1411.62	1.47002
1558-33-4	Dichloro(chloromethyl)methylsilane		394.65	1285.82	1.45002
1559-02-0	Diethyl 1,1-cyclopropanedicarboxylate		487.15	1055.25	1.434518
1559-35-9	2-[(2-Ethylhexyl)oxy]ethanol		504.15		
1559-81-5	1,2,3,4-Tetrahydro-1-methylnaphthalene		494.15	958.32	1.53532
156-06-9	α-Oxobenzenepropanoic acid	430.65			
156-08-1	Benzphetamine				1.551519
156-10-5	4-Nitroso-N-phenylaniline	416.15			
156-28-5	Benzeneethanamine, hydrochloride	491.65			
156-38-7	4-Hydroxybenzeneacetic acid	423.35			
156-39-8	3-(4-Hydroxyphenyl)-2-oxopropanoic acid				
156-43-4	4-Ethoxyaniline	277.85	527.15	1065.216	1.55282
156-56-9	Hypoglycin A	555.15			
156-59-2	cis-1,2-Dichloroethene	193.15	333.15	1283.72	1.44902
156-60-5	trans-1,2-Dichloroethene	223.35	320.79	1256.52	1.44542
156-62-7	Calcium cyanamide	1613.15		2290	
156-87-6	3-Amino-1-propanol	285.25	458.15	982.426	1.46172
1560-06-1	2-Butenylbenzene		455.15	883.12	1.51012
156053-88-2	Perfluoroethyl 2,2,2-trifluoroethyl ether		301.04		
1561-10-0	Ethyl 4-methylhexanoate		453.15	870.82	1.40512
1562-00-1	Sodium 2-hydroxyethanesulfonate				
1562-94-3	Bis(4-methoxyphenyl)diazene, 1-oxide			1171.111	
15625-89-5	Tri-2-propenoyl-2-ethyl-2-(hydroxymethyl)-1,3-propanediol				1.47352
1563-66-2	Carbofuran	426.35		1180	
15647-08-2	2-Ethylhexyl diphenyl phosphite			1054.2	1.520727
15647-11-7	3-(Aminomethyl)-3,5,5-trimethylcyclohexanol	318.65	538.15	969.25	1.49042
1565-81-7	3-Decanol	265.65	490.15	827.2	1.4342
1567-89-1	Acetone (2,4-dinitrophenyl)hydrazone	401.15			
15679-24-0	2,7-Dimethylpyrene	503.15			
15686-71-2	Cephalexin				
15686-83-6	Pyrantel	451.15			
15687-27-1	Ibuprofen	348.15			
1569-01-3	1-Propoxy-2-propanol		423.35	888.62	1.41302
1569-60-4	6-Methyl-5-hepten-2-ol		459.15	854.52	1.45052
1569-69-3	Cyclohexanethiol		431.95	978.22	1.49212
157-40-4	Spiro[2.2]pentane	166.17	312.15	726.62	1.41202
1570-45-2	Ethyl 4-pyridinecarboxylate	296.15	494.15	1009.115	1.50172
1570-64-5	4-Chloro-2-methylphenol	324.15	496.15		
1570-65-6	2,4-Dichloro-6-methylphenol	328.15			
15706-73-7	Butyl 2-methylbutanoate		452.15	862.02	1.41352
1571-08-0	Methyl 4-formylbenzoate	336.15	538.15		
1571-33-1	Phenylphosphonic acid	431.65			
1572-52-7	2-Methylenepentanedinitrile				1.45612
1573-17-7	2-Butyne-1,4-diol diacetate				1.46112
1574-33-0	3-Methyl-3-penten-1-yne		342.15	739.2	1.43322
1574-40-9	cis-3-Penten-1-yne		317.15		
1574-41-0	cis-1,3-Pentadiene	132.34	317.15	691.02	1.43632
1575-61-7	5-Chloropentanoyl chloride			1210.18	1.46392
1576-95-0	cis-2-Penten-1-ol		411.15	852.92	1.43542
1576-96-1	trans-2-Penten-1-ol		411.15	847.12	1.43412
15764-04-2	α-Vetivone	324.65		1003.52	1.53702
15764-16-6	2,4-Dimethylbenzaldehyde	264.15	491.15		
1577-22-6	5-Hexenoic acid	236.15	476.15	961.02	1.43432
1579-40-4	Bis(4-methylphenyl) ether	324.15	558.15		
15804-19-0	1,4-Dihydro-2,3-quinoxalinedione	683.15			
1582-09-8	Trifluralin	322.75			
15825-70-4	D-Mannitol hexanitrate	384.15		1820	
15840-60-5	cis-2-Methyl-3-hexene		359.15	690.25	1.4012
1585-07-5	1-Bromo-4-ethylbenzene	229.75	477.15	1342.32	1.54452
15862-07-4	2,4,5-Trichlorobiphenyl	350.15			
15867-21-7	Alphaprodine	376.15			
15869-80-4	3-Ethylheptane	158.25	416.25	722.525	1.40932
15869-85-9	5-Methylnonane	186.742	437.15	732.62	1.41162
15869-86-0	4-Ethyloctane		436.15	734.325	1.41512
15869-87-1	2,2-Dimethyloctane		427.15	720.825	1.40822
15869-89-3	2,5-Dimethyloctane		430.15	726.425	1.41122
15869-92-8	3,4-Dimethyloctane		435.15	741.025	1.41822
15869-94-0	3,6-Dimethyloctane		433.95	732.425	1.41392
1587-20-8	Trimethyl citrate	352.45	558.15		
15870-10-7	2-Methyl-1-heptene	183.05	392.15	710.425	1.41232
1589-47-5	2-Methoxy-1-propanol		403.15	938.2	1.40702
1590-08-5	3,4-Dihydro-2-methyl-1(2H)-naphthalenone	288.15		1057.25	1.55352
15905-32-5	Erythrosine				
1591-31-7	4-Iodo-1,1'-biphenyl	386.65	593.15		
1592-38-7	2-Naphthalenemethanol	354.45			
15932-80-6	5-Methyl-2-(1-methylethylidene)cyclohexanone			936.72	1.48692
15950-66-0	2,3,4-Trichlorophenol	353.15			
1596-84-5	Daminozide	425.85			
15972-60-8	Alachlor	315.15		1133.25	
15980-15-1	1,4-Oxathiane	251.45	422.15	1117.42	
15988-11-1	4-Phenyl-1,2,4-triazolidine-3,5-dione	478.65			
1599-67-3	1-Docosene	311.15	640.15	794.25	
1600-37-9	1,1,2,3,3-Pentachloro-1-propene		458.15	1631.734	1.53132
16009-13-5	Hemin	573.15			
1602-00-2	trans-4,4'-Dichloroazobenzene	462.15			
1603-40-3	3-Methyl-2-pyridinamine	306.65	495.95		
1603-41-4	5-Methyl-2-pyridinamine	350.45	500.15		
1603-79-8	Ethyl 2-oxo-2-phenylacetate		529.65	1122.225	1.519025
1603-84-5	Carbon oxyselenide	148.75	251.45		
1603-91-4	4-Methyl-2-thiazolamine	318.65			
16033-71-9	Methyloxirane	161.25	308.15	859	1.36602
16034-77-8	Iocetamic acid	498.15			
1604-01-9	2,3,4,5-Tetrahydro-6-propylpyridine		447.15	875.315	1.466116
1604-02-0	1-Propylcyclopentanol	235.65	444.15	904.025	1.450225
1604-11-1	Dimethyl 2-methylsuccinate		469.15	1076.25	1.42002
1606-67-3	1-Pyrenamine	390.65			
16066-09-4	1,1,1,3,5,7,7,7-Octamethyltetrasiloxane		443.15	855.92	1.38542
1608-26-0	Hexamethylphosphorous triamide				
1609-47-8	Diethyl dicarbonate			1120.2	1.39602
1609-86-5	tert-Butyl isocyanate	358.65		867.07	1.40612
16090-49-6	Dimethyl germanium sulfide	327.65	575.15		
1610-18-0	Prometone	364.55			
1611-35-4	Xylenol orange				
16110-51-3	Cromolyn				
1613-51-0	Thiacyclohexane	292.24	414.88	986.12	1.50672
16136-84-8	cis-1-Chloropropene	138.35	305.15	934.72	1.40552
16136-85-9	trans-1-Chloropropene	174.15	310.15	934.92	1.40542
1615-75-4	1-Chloro-1-fluoroethane		289.15		
1615-80-1	1,2-Diethylhydrazine		358.65	797.26	1.42042
1617-18-1	Ethyl 3-butenoate		392.15	912.22	1.41052
1617-32-9	trans-3-Pentenoic acid		466.35	989.19	
1617-90-9	Vincamine	504.65			
16177-46-1	cis-1,2-Divinylcyclobutane			801.02	1.45632
1618-26-4	Bis(methylthio)methane		421.15		
1619-34-7	1-Azabicyclo[2.2.2]octan-3-ol	494.15			
16219-75-3	5-Ethylidene-2-norbornene		419.15	893	1.49002
1622-32-8	2-Chloroethanesulfonyl chloride		474.65	1555.2	1.49202
1622-61-3	Clonazepam	510.65			
1623-14-9	Ethyl dihydrogen phosphate			1430.25	1.427
1623-19-4	Triallyl phosphate	223.15		1081.52	
16245-79-7	4-Octylaniline	293.15	583.15	912.82	
16262-48-9	p-Isopropenylstyrene		515.15	930	1.56842
1628-58-6	2-(p-Dimethylaminostyryl)benzothiazole				
1628-89-3	2-Methoxypyridine		415.15	1045.72	1.50422
1629-58-9	1-Penten-3-one		376.15	846.82	1.41952
1630-77-9	cis-1,2-Difluoroethene		228.15		
1630-78-0	trans-1,2-Difluoroethene		220.05		
1630-94-0	1,1-Dimethylcyclopropane	164.15	294.15	660.42	1.36682
16301-26-1	Azoxyethane		319.15		
16302-35-5	3,6-Dihydro-4-methyl-2H-pyran		391.15	912.25	1.44952
1631-78-3	Methylstannane		274.55		
1631-82-9	Chloromethylphenylsilane			1043.2	1.51712
1631-84-1	Dichlorophenylsilane		454.15	1221.25	
1632-16-2	3-Methyleneheptane		393.15	727.02	1.41572
1632-76-4	3-Methylpyridazine	457.15	487.15	1045.026	1.51452
1632-83-3	1-Methyl-1H-benzimidazole	339.15	559.15	1125.42	1.60137
1633-83-6	1,4-Butane sultone	286.65		1331.2	1.46402
1633-97-2	2-Methyl-2-pentanethiol		398.15		
1634-02-2	N,N,N',N'-Tetrabutylthioperoxydicarbonic diamide	312.65		1032	
1634-04-4	Methyl tert-butyl ether	164.55	328.25	735.325	1.366425
1634-09-9	1-Butylnaphthalene	253.45	561.15	973.82	1.58192
1634-78-2	Malaoxon				
1634-82-8	2-[(4-Hydroxyphenyl)azo]benzoic acid	479.15			
1635-61-6	5-Chloro-2-nitroaniline	398.95			
16357-59-8	Ethyl 2-ethoxy-1(2H)-quinolinecarboxylate	329.65			
1636-39-1	1,1'-Bicyclopentyl		463.61		
16369-21-4	2-(Propylamino)ethanol		456.15	900.52	1.44282
1638-22-8	4-Butylphenol	295.15	524.15	976.22	1.516525
1638-26-2	1,1-Dimethylcyclopentane	203.72	360.95	749.925	1.41362
1638-86-4	Diethyl phenylphosphonite		508.15	1032.16	
1639-01-6	2,3-Dimethyl-2-butanethiol		399.25		
1639-09-4	1-Heptanethiol	229.93	450.05	842.72	1.45212
1640-39-7	2,3,3-Trimethyl-3H-indole				
1640-89-7	Ethylcyclopentane	134.73	376.65	766.52	1.41982
16409-44-2	Geranyl acetate			916.315	1.46242
16409-46-4	Menthol 3-methylbutanoate			908.15	1.44862
1641-09-4	3-Thiophenecarbonitrile		477.15		
1641-40-3	2-Chloro-1,3,2-benzodioxaphosphole	303.15		1465.02	1.57122
1642-54-2	Diethylcarbamazine citrate	411.15			
16420-13-6	Dimethylcarbamothioic chloride	315.15			
1643-19-2	Tetrabutylammonium bromide	372.15			
1643-20-5	N,N-Dimethyldodecylamine oxide	403.65			
1643-28-3	3-(2-Chlorophenyl)propanoic acid	375.15			
16448-54-7	Iron(III) NTA				
1646-26-0	1-(2-Benzofuranyl)ethanone	349.15			
1646-88-4	Aldoxycarb S,S-dioxide	414.15			
1647-16-1	1,9-Decadiene		437.15	752.5	1.43252
1647-26-3	(2-Bromoethyl)cyclohexane	216.15	485.15	1235.72	1.48992
1649-08-7	1,2-Dichloro-1,1-difluoroethane	171.95	320.15	1416.32	1.361932
16491-15-9	1,5-Dimethylcyclopentene	154.65	372.15	780.2	1.43312
16520-62-0	3-Butynylbenzene		450.15	925.82	1.52082
16529-66-1	trans-3-Pentenenitrile		417.15	837	1.42202
1653-19-6	2,3-Dichloro-1,3-butadiene		374.15	1182.92	1.48902
1653-30-1	2-Undecanol	273.15	504.15	823.425	1.435225
1653-40-3	6-Methyl-1-heptanol	167.15	464.15	817.625	1.425125
16532-02-8	(Bromomethyl)chlorodimethylsilane		404.15	1375.25	1.463025
16532-79-9	4-Bromobenzeneacetonitrile	321.15			
1654-86-0	Decyl decanoate	283.15		858.62	1.44232
16543-55-8	N-Nitrosonornicotine				
1656-48-0	Bis(2-cyanoethyl) ether			1050.42	1.44052
16561-29-8	12-O-Tetradecanoylphorbol-13-acetate				
16587-71-6	4-(1,1-Dimethylpropyl)cyclohexanone	369.15		920.25	1.46772
16588-34-4	4-Chloro-3-nitrobenzaldehyde	337.65			
16590-41-3	Naltrexone	442.15			
16617-46-2	3-Amino-1H-pyrazole-4-carbonitrile	446.15			
1662-01-7	4,7-Diphenyl-1,10-phenanthroline				
16629-19-9	2-Thiophenesulfonyl chloride	301.15			
1663-35-0	(2-Methoxyethoxy)ethene		380.15		
1663-39-4	tert-Butyl acrylate		393.15	879.25	1.41102
1663-45-2	1,2-Bis(diphenylphosphino)ethane	416.65			
1663-67-8	Propanedioyl dichloride			1450.92	1.46392
16642-79-8	3-(4-Nitrophenyl)propanoic acid	436.15			
1665-48-1	Metaxalone	395.15			
1666-13-3	Diphenyl diselenide	336.65		1557.8	1.7432
1667-01-2	1-(2,4,6-Trimethylphenyl)ethanone		514.15	975.42	1.51752
16672-87-0	Ethephon	349.85		1200	
1668-19-5	Doxepin				
1670-14-0	Benzenecarboximidamide, monohydrochloride	442.15			
1670-46-8	2-Acetylcyclopentanone			1043.125	1.49062
1671-75-6	1-Phenyl-1-heptanone	290.15	557.15	951.62	1.50602
16714-68-4	1,1,2,2,3-Pentachloropropane			1633.25	1.509825
1672-46-4	Digoxigenin	495.15			
1674-10-8	1,2-Dimethylcyclohexene	189.05	410.15	822.025	1.46202
1674-30-2	α-(Chloromethyl)benzenemethanol			1192.62	1.55232
1674-33-5	1,2-Dichloropentane		421.35	1087.22	1.44852
1674-37-9	1-Phenyl-1-octanone	295.95	573.15	936.03	
1674-38-0	1-Phenyl-1-dodecanone	317.15		879.418	1.470018
1674-56-2	1-Amino-2-propanol	274.85	414.15	961.12	1.44792
16746-86-4	2,3-Dimethyl-1-hexene		384.15	717.225	1.41132
16747-25-4	2,2,3-Trimethylhexane		407.15	725.725	1.41062
16747-26-5	2,2,4-Trimethylhexane	151.15	400.15	711.2	1.40332
16747-28-7	2,3,3-Trimethylhexane	156.35	410.15	734.525	1.41412
16747-30-1	2,4,4-Trimethylhexane	159.75	403.75	720.125	1.40742
16747-31-2	3,3,4-Trimethylhexane	171.95	412.15	741.425	1.41782
16747-32-3	3-Ethyl-2,2-dimethylpentane	173.75	407.15	743.82	1.41232
16747-33-4	3-Ethyl-2,3-dimethylpentane		415.15	750.825	1.42212
16747-38-9	2,3,3,4-Tetramethylpentane	171.05	414.65	754.72	1.42222
16747-44-7	2,2,3,3,4-Pentamethylpentane	236.65	439.15	776.725	1.43612
16747-45-8	2,2,3,4,4-Pentamethylpentane	234.35	432.15	763.625	1.43072
16747-50-5	1-Ethyl-1-methylcyclopentane	129.35	394.65	776.725	1.42722
16751-59-0	4-Heptanamine		413.15	767.2	1.41722
16752-77-5	Methomyl	352.15		1294.624	
1676-63-7	4'-Ethoxyacetophenone	312.15	541.15		
1677-46-9	4-Hydroxy-1-methyl-2-quinolinone	538.15			
1678-82-6	trans-4-Isopropyl-1-methylcyclohexane	186.85	444.15	792.82	1.43662
1678-91-7	Ethylcyclohexane	161.87	404.95	788.02	1.43302
1678-92-8	Propylcyclohexane	178.29	429.85	793.62	1.43702
1678-93-9	Butylcyclohexane	198.47	454.05	790.22	1.44082
1678-98-4	Isobutylcyclohexane	178.15	444.45	795.22	1.43862
16789-46-1	3-Ethyl-2-methylhexane		411.15	731.02	1.41062
1679-06-7	2-Hexanethiol	126.15	412.15	834.52	1.44512
1679-07-8	Cyclopentanethiol		405.35	955.02	
1679-08-9	2,2-Dimethyl-1-propanethiol		376.75		
1679-09-0	2-Methyl-2-butanethiol		372.25	812.02	1.43852
1679-47-6	Dihydro-3-methyl-2(3H)-furanone		473.15	1057.02	1.43252
1679-49-8	Dihydro-4-methyl-2(3H)-furanone			1058.2	1.43392
1679-64-7	Methyl terephthalate	492.55			
16790-49-1	Butazolamide				
1680-51-9	1,2,3,4-Tetrahydro-6-methylnaphthalene	233.15	502.15	953.72	1.53572
16842-03-8	Cobalt hydrocarbonyl	243.15	283.15		
1686-14-2	2,3-Epoxy-α-pinane				
16867-04-2	3-Hydroxy-1H-pyridin-2-one				
16881-77-9	Methyldimethoxysilane		334.15		
16883-48-0	1α,2β,4α-1,2,4-Trimethylcyclopentane	142.35	383.15	743.025	1.41062
1689-64-1	9H-Fluoren-9-ol	427.15			
1689-73-2	4-[(Phenylimino)methyl]phenol	469.15			
1689-82-3	4-(Phenylazo)phenol	424.65			
1689-83-4	4-Hydroxy-3,5-diiodobenzonitrile	488.95			
1689-84-5	3,5-Dibromo-4-hydroxybenzonitrile	463.65			
16898-52-5	1,3-Di-4-piperidylpropane	340.25	602.15		
1691-17-4	Bis(difluoromethyl) ether		278.65	1432	
16939-57-4	trans-1,3-Butadienylbenzene	275.45		928.62	1.608925
1694-19-5	trans-1-Methoxy-4-(2-phenylvinyl)benzene	409.65			
1694-31-1	tert-Butyl 3-oxobutanoate			975.62	1.41802
1694-92-4	2-Nitrobenzenesulfonyl chloride	341.65			
16957-70-3	trans-2-Methyl-2-pentenoic acid	297.55	487.15	975.12	1.45132
1696-17-9	N,N-Diethylbenzamide				
1696-20-4	4-Acetylmorpholine	287.65		1114.52	1.48272
1698-60-8	Chloridazon	479.95			
17015-11-1	3-Hexanol		416.15	818.22	1.41672
1702-17-6	Clopyralid	424.15			
17021-26-0	Calusterone	430.65			
1703-58-8	1,2,3,4-Butanetetracarboxylic acid	509.65			
1705-85-7	6-Methylchrysene	432.55			
17071-47-5	Butyl isobutyl ether		408.15	763.15	1.407721
1708-29-8	2,5-Dihydrofuran				1.43112
1708-32-3	2,5-Dihydrothiophene		395.55		
17082-09-6	trans-3-Phenyl-2-propenoyl chloride	310.65	530.65	1161.745	1.61442
17082-12-1	trans-Azobenzene	341.03	573.15	1203.2	1.626678
1709-44-0	3-Aminobenzaldehyde	302.15			
17094-01-8	L-Sepiapterin				
17094-21-2	Methyl 2-methylacetoacetate		450.55	1021.725	1.41624
17094-34-7	Ethyl 4,4-dimethyl-3-oxopentanoate			971.8	
1710-98-1	4-tert-Butylbenzoyl chloride		539.15	1007.25	1.53642
1711-02-0	4-Iodobenzoyl chloride	337.65			
1711-06-4	3-Methylbenzoyl chloride	250.15	492.65	1026.521	1.50522
1711-07-5	3-Fluorobenzoyl chloride	243.15	462.15	1304.25	1.52852
17113-33-6	2-Phenylfuran			1083.2	1.59202
1712-64-7	Isopropyl nitrate		374.15	1034.19	1.391216
1717-00-6	1,1-Dichloro-1-fluoroethane	169.65	305.2	1250.1	1.36001
17176-77-1	Dibenzyl phosphite	270.65			1.552118
17185-29-4	Tris(triphenylphosphine) rhodium carbonyl hydride	394.15		1330	
1719-53-5	Dichlorodiethylsilane	176.65	403.15	1050.42	1.43092
1719-57-9	Chloro(chloromethyl)dimethylsilane		388.65	1086.52	1.43602
1719-58-0	Chlorovinyldimethylsilane		355.45	874.42	1.41412
1720-32-7	1,6-Diphenyl-1,3,5-hexatriene	475.15			
17201-43-3	4-(Bromomethyl)benzonitrile	387.15			
17202-20-9	cis, cis-2,6-Dimethyl-2,4,6-octatriene				
1721-93-3	1-Methylisoquinoline	283.15	525.15	1077.72	1.60952
1722-62-9	Mepivacaine monohydrochloride	536.15			
1723-94-0	1,2-Bis(N-morpholino)ethane	348.15	558.15		
1724-39-6	Cyclododecanol		559.15		
17256-39-2	1-Chloro-N,N-dimethyl-2-propanamine, hydrochloride				
1726-66-5	Tridecylaluminum	235.15			
1729-67-5	Methyl 2,3-dibromopropanoate		479.15	1933.32	1.51272
1730-37-6	1-Methyl-9H-fluorene	360.15			
17301-94-9	4-Methylnonane	174.75	439.15	732.32	1.41232
1731-84-6	Methyl nonanoate		485.15	879.915	1.42142
1731-86-8	Methyl undecanoate				
1731-88-0	Methyl tridecanoate	279.05			1.44052
1731-92-6	Methyl heptadecanoate	303.05			
1731-94-8	Methyl nonadecanoate	311.45			
17312-63-9	5-Butylnonane		492.15	763.518	1.427318
1732-08-7	Dimethyl heptanedioate	252.15	518.15	1062.52	1.43092
1732-09-8	Dimethyl octanedioate	279.15	532.15	1021.72	1.43412
1732-10-1	Dimethyl nonanedioate	272.35		1008.22	1.43672
1733-12-6	Cresol Red	573.15			
1734-79-8	3-(4-Nitrophenyl)-2-propenal	414.65			
17341-93-4	Carbonochloridic acid, 2,2,2-trichloroethyl ester				
17348-59-3	tert-Butyl isopropyl ether	184.85	360.45	736.525	
17356-19-3	1-Ethynylcyclopentanol	300.15	430.65	962.25	1.47512
17372-87-1	2',4',5',7'-Tetrabromofluorescein, disodium salt	568.65			
17376-04-4	(2-Iodoethyl)benzene			1603	1.60102
1738-25-6	3-(Dimethylamino)propanenitrile		450.15	870.52	
1738-36-9	Methoxyacetonitrile		394.15	949.22	1.38312
1739-84-0	1,2-Dimethyl-1H-imidazole		479.15	1005.111	
17397-89-6	Cerulenin	367.15			
1740-19-8	Dehydroabietic acid	445.15			
17406-45-0	Tomatine	543.15			
1741-83-9	Methyl pentyl sulfide	179.15	421.15	843.12	1.45062
17420-30-3	2-Amino-5-nitrobenzonitrile	476.65			
1745-81-9	2-Allylphenol	267.15	493.15	1024.615	1.51812
1746-01-6	2,3,7,8-Tetrachlorodibenzo-p-dioxin	578.15			
1746-11-8	2,3-Dihydro-2-methylbenzofuran		470.65	1061.25	1.5308
1746-13-0	Allyl phenyl ether		463.65	981.12	1.52232
1746-23-2	1-tert-Butyl-4-vinylbenzene	236.25		892	
1746-77-6	Isopropyl carbamate	366.15	456.15	995.166	
1746-81-2	Monolinuron	353.95			
17465-86-0	γ-Cyclodextrin				
17466-45-4	Phalloidin	554.15			
1747-60-0	6-Methoxy-2-benzothiazolamine	439.15			
17496-08-1	Ammonium propanoate	318.15			
1752-30-3	Acetone thiosemicarbazide	449.15			
17534-15-5	1,2-Benzenedithiol	301.65	511.65		
1754-58-1	Nellite	376.65			
1754-62-7	Methyl trans-cinnamate	309.65	535.05	1042.36	1.576622
1755-01-7	Dicyclopentadiene	305.15		930.235	1.505035