CASRN	Name	Tm	Tb	rho	RI
458-35-5	4-(3-Hydroxy-1-propenyl)-2-methoxyphenol	347.15			
458-36-6	3-(4-Hydroxy-3-methoxyphenyl)-2-propenal	357.15		1156.2102	
458-37-7	Curcumin	456.15			
458-88-8	2-Propylpiperidine, (S)-	272.15	439.65	844.02	1.451222
4584-46-7	2-Chloro-N,N-dimethylethanamine, hydrochloride	474.15			
4584-57-0	N,N-Dimethyl-4-[2-(4-nitrophenyl)ethenyl]aniline	531.45			
4588-18-5	2-Methyl-1-octene	195.35	417.15	734.32	1.41842
459-22-3	4-Fluorobenzeneacetonitrile	359.15	501.15	1139.02	1.50022
459-56-3	4-Fluorobenzenemethanol	296.15	483.15		1.50802
459-57-4	4-Fluorobenzaldehyde	263.15	454.65	1181.019	
459-60-9	1-Fluoro-4-methoxybenzene	228.15	430.15	1178.118	1.488618
459-67-6	2-Cyclopentene-1-undecanoic acid, (R)-	333.65			
459-72-3	Ethyl fluoroacetate		393.15	1091.22	1.37552
459-73-4	Ethyl 2-aminoacetate		422.15	1027.51	1.42421
459-80-3	3,7-Dimethyl-2,6-octadienoic acid				
4593-16-2	1-Acetyl-3-methylpiperidine	259.55	512.15	968.425	1.473125
4597-87-9	N-Methyl-2-pyridinamine	288.15	475.15	1048.29	
460-00-4	1-Bromo-4-fluorobenzene	255.75	423.15	1593.15	1.531015
460-12-8	1,3-Butadiyne	238.15	283.15	736.4	1.41895
460-13-9	1-Fluoropropane	114.15	270.15		1.31152
460-19-5	Cyanogen	245.32	252.05		
460-35-5	3-Chloro-1,1,1-trifluoropropane	179.42	318.25	1325.32	1.33502
460-43-5	2,2,2-Trifluoroethyl methyl ether		304.77		
4606-07-9	Ethyl cyclopropanecarboxylate		401.15	960.815	1.41902
4606-65-9	3-Piperidinemethanol	334.15		1026.32	1.49642
4607-38-9	α-Hydroxy-α-methylbenzeneacetic acid, (±)-	367.15			
4609-87-4	1-Nitrodecane				1.43372
461-58-5	Cyanoguanidine	480.15		1404.14	
461-72-3	2,4-Imidazolidinedione	493.15			
461-78-9	Chlorphentermine		504.15		
461-89-2	1,2,4-Triazine-3,5(2H,4H)-dione	549.95			
461-98-3	2,6-Dimethyl-4-pyrimidinamine	456.15			
4618-18-2	Lactulose	442.15			
4619-74-3	2,4,6-Tribromo-3-methylphenol	357.15			
462-02-2	1,3,5-Trioxane-2,4,6-triimine			1127.15	
462-06-6	Fluorobenzene	230.97	357.85	1022.52	1.46843
462-08-8	3-Pyridinamine	337.65	525.15		
462-18-0	7-Tridecanone	306.15	539.15	825.3	
462-20-4	6,8-Dimercaptooctanoic acid				
462-94-2	1,5-Pentanediamine	284.95	451.15	873.25	1.4632
462-95-3	Diethoxymethane	207.15	359.15	831.92	1.374818
4620-70-6	2-(tert-Butylamino)ethanol	317.15	453.15	881.82	
4621-66-3	3-Pyridinecarbothioamide	465.15			
4625-24-5	1-Methylbicyclo[3.1.0]hexane		361.15		
4628-21-1	cis-1-Chloro-2-butene		357.15	942.62	1.43902
463-04-7	Pentyl nitrite		377.65	881.72	1.38512
463-11-6	1-Fluorooctane	209.15	419.15	811.62	1.39462
463-40-1	cis,cis,cis-9,12,15-Octadecatrienoic acid	263.15		916.42	1.48002
463-49-0	Allene	136.75	238.35		1.4168
463-51-4	Ketene	122.15	223.45		
463-52-5	Methanimidamide	354.15			
463-56-9	Thiocyanic acid	273.15			
463-58-1	Carbon oxysulfide	134.35	222.95		
463-71-8	Carbonothioic dichloride		346.15	1508.15	1.54422
463-72-9	Carbamic chloride				
463-79-6	Carbonic acid				
463-82-1	Neopentane	256.78	282.65		1.34766
463-88-7	Neurine				
4630-20-0	3-Methyl-9H-carbazole	477.15	638.15		
4630-62-0	Phenyl α-D-glucopyranoside	429.15			
4630-82-4	Methyl cyclohexanecarboxylate		456.15	995.415	1.44332
4635-59-0	4-Chlorobutanoyl chloride		446.65	1258.12	1.46162
4637-24-5	N-(Dimethoxymethyl)dimethylamine		377.15	897.25	1.39722
4638-92-0	trans-2,2-Dimethyl-3-(2-methyl-1-propenyl)cyclopropanecarboxylic acid	293.15	518.15		
464-06-2	2,2,3-Trimethylbutane	248.59	353.95	690.12	1.38642
464-10-8	Tribromonitromethane	283.15		2811.12	1.57902
464-15-3	1,7,7-Trimethylbicyclo[2.2.1]heptane		434.15		
464-17-5	1,7,7-Trimethylbicyclo[2.2.1]hept-2-ene	386.15	419.15		
464-41-5	Bornyl chloride	401.15	480.65		
464-48-2	Camphor, (-)	453.15		985.318	
464-49-3	Camphor, (+)	451.85	482.15	990.25	1.5462
464-72-2	1,1,2,2-Tetraphenyl-1,2-ethanediol	455.15			
464-85-7	Quinamine	458.65			
464-86-8	Conquinamine	396.15			
4645-15-2	Dicyclohexyl ether	237.15	515.65	922.72	1.47412
465-16-7	Oleandrin				
465-42-9	Capsanthin	449.15			
465-65-6	Naloxone	451.15			
465-74-7	Quinovic acid				
465-99-6	Hederagenin	606.15			
4654-26-6	Dioctyl terephthalate		698.15	1216.2	
4655-34-9	Isopropyl methacrylate		403.15	884.72	1.41222
4659-47-6	2,3,6-Trichlorobenzaldehyde	360.45			
466-43-3	Atisine	331.65			
466-49-9	1-Acetyl-17-methoxyaspidospermidine	481.15			
466-81-9	β-Erythroidine	372.65			
466-96-6	Pseudocodeine	454.65		1290.8	1.574
466-97-7	Normorphine	546.15			
466-99-9	Hydromorphone	539.65			
4663-22-3	(1-Methylvinyl)cyclopropane	170.85	343.15	751.2	1.42522
4667-99-6	Chlorotriethoxysilane	222.15	429.15	1030.2	1.39992
467-14-1	Neopine	400.65			
467-55-0	3-Hydroxyspirostan-12-one, (3β,5α,25R)-	539.65			
467-60-7	α,α-Diphenyl-2-piperidinemethanol	370.65			
467-62-9	Tris(4-aminophenyl)methanol	478.15			
467-81-2	Lantadene A	570.15			
467-82-3	Lantadene B	575.15			
467-85-6	6-(Dimethylamino)-4,4-diphenyl-3-hexanone				
467-98-1	Thebainone	424.65			
4671-03-8	4-Cyclohexyl-3-ethyl-4H-1,2,4-triazole	362.65			
468-28-0	Lupulon	366.15			
468-45-1	Solanid-5-ene-3,18-diol, (3β)	515.65			
468-76-8	Cassaine	415.65			
4680-78-8	Guinea Green B				
4682-50-2	Trichodermin	332.15			
4685-14-7	Paraquat				
469-21-6	Doxylamine				
469-59-0	Jervine				
469-61-4	α-Cedrene		535.65		
469-62-5	D-Propoxyphene	348.65			
4694-12-6	2,4,4-Trimethylcyclopentanone	247.55	433.65	878.518	1.43318
4695-31-2	2-Mercapto-2-methylpropanoic acid	320.15			
470-40-6	3-Thujopsene			932.24	1.503125
470-44-0	Alloxanic acid				
470-67-7	4-Isopropyl-1-methyl-7-oxabicyclo[2.2.1]heptane	274.15	446.65	899.72	1.45622
470-82-6	Eucalyptol	274.55	449.15	926.72	1.45862
470-90-6	Chlorfenvinphos				
470-99-5	3,5,5-Trimethyl-2-cyclohexen-1-ol			914.2	1.47172
471-16-9	4-Methylene-1-isopropylbicyclo[3.1.0]hexan-3-ol, [1S-(1α,3β,5α)]		481.15	948.819	1.487125
471-25-0	2-Propynoic acid	282.15		1138.02	1.43062
471-35-2	Tetramethyldiarsine	267.15	438.15	1447.15	
471-46-5	Oxamide	572.15		1667.2	
471-47-6	Oxamic acid	482.15			
471-77-2	Neoabietic acid	446.15			
471-87-4	Stachydrine	508.15			
471-95-4	Bufotalin				
4712-55-4	Diphenyl phosphonate	285.15		1223.25	1.55752
472-70-8	β,β-Caroten-3-ol, (3R)-	433.15			
472-93-5	β,ψ-Carotene	426.15			
4726-14-1	Nitralin	424.85			
4726-96-9	O-Benzyl-L-serine				
4727-17-7	Cyclopentadecanol	353.65		930.2	1.455598
473-06-3	2,7,7-Trimethylbicyclo[3.1.1]hept-2-en-6-one				1.472022
473-29-0	N,N-Dichlorobenzenesulfonamide	349.15			
473-30-3	5-[(4-Aminophenyl)sulfonyl]-2-thiazolamine				
473-34-7	N,N-Dichloro-4-methylbenzenesulfonamide	356.15			
473-55-2	Pinane	220.15	440.15	846.721	1.460521
473-98-3	Lup-20(29)-ene-3,28-diol, (3β)	529.15			
4730-22-7	6-Methyl-2-heptanol	168.15	446.15	821.82	1.42381
4733-39-5	2,9-Dimethyl-4,7-diphenyl-1,10-phenanthroline				
4737-41-1	3-(Chloromethyl)pentane		399.15	891.42	1.42222
474-25-9	3,7-Dihydroxycholan-24-oic acid, (3α,5β,7α)	392.15			
474-40-8	α1-Sitosterol	439.15			
474-62-4	Ergost-5-en-3-ol, (3β,24R)-	430.65			
474-69-1	Ergosta-5,7,22-trien-3-ol, (3β,9β,10α,22E)-	391.15			
474-77-1	Cholest-5-en-3-ol, (3α)	414.65			
474-86-2	3-Hydroxyestra-1,3,5(10),7-tetraen-17-one	512.15			
4743-17-3	6-Chloro-2H-3,1-benzoxazine-2,4(1H)-dione				
4744-08-5	1,1-Diethoxypropane		394.15	825.2	1.392419
4744-10-9	1,1-Dimethoxypropane		361.15	864.82	
4747-07-3	Hexyl methyl ether		398.15		
4747-15-3	(2-Methoxyvinyl)benzene		484.65	989.423	1.562024
4747-21-1	Isopropylmethylamine		326.45		
4748-78-1	4-Ethylbenzaldehyde		494.15	979.02	
4749-28-4	2-Nitro-1-propene			1055.925	1.43582
475-00-3	Veratramine, 3-glucoside				
475-03-6	1,2,3,4-Tetrahydro-1,1,6-trimethylnaphthalene		513.15	930.32	1.52572
475-20-7	Longifolene		531.15	931.918	1.50402
475-25-2	Hematein				
475-31-0	Glycocholic acid	439.65			
475-38-7	5,8-Dihydroxy-1,4-naphthalenedione	516.15			
475-67-2	Isocorydine	458.15			
475-81-0	d-Glaucine	393.15			
4753-75-7	N-Methyl-2-furanmethanamine		422.15	989.25	1.47292
4753-80-4	Thiepane	273.65	428.15	991.2	1.504418
4755-77-5	Ethyl 2-chloro-2-oxoacetate		410.15	1222.62	
4759-48-2	13-cis-Retinoic acid	462.15			
476-28-8	Lycorine	553.15			
476-32-4	Chelidonine	408.65			
476-45-9	Javanicin				
476-60-8	1,4,9,10-Anthracenetetrol	421.15			
476-69-7	Corydine	422.15			
476-70-0	Boldine	436.15			
4766-57-8	Butyl silicate		529.15	899.02	1.41282
4767-03-7	3-Hydroxy-2-(hydroxymethyl)-2-methylpropanoic acid	468.65			
477-27-0	Colchiceine	451.65		1242.5	
477-32-7	Visnadine	358.65			
477-47-4	Picropodophyllin	501.15			
477-60-1	Bebeerine	494.15			
477-75-8	9,10-Dihydro-9,10[1',2']-benzenoanthracene	527.14			
477-89-4	Casimiroin				
477-90-7	Bergenin	511.15			
4771-80-6	3-Cyclohexene-1-carboxylic acid	290.15	510.15	1082.02	1.48142
4773-83-5	1,2,3-Trimethylindene			971.42	1.55212
478-43-3	Rhein	594.15			
478-61-5	6,6',7-Trimethoxy-2,2'-dimethylberbaman-12-ol	471.65			
478-94-4	Lysergamide	410.65			
478-95-5	Isolysergic acid				
4780-79-4	1-Naphthalenemethanol	337.15	577.15	1103.98	
4784-77-4	1-Bromo-2-butene		371.15	1337.125	1.48222
4786-24-7	3-Methyl-2-butenenitrile		414.15		
479-00-5	Ergometrinine				
479-13-0	Coumestrol				
479-18-5	Dyphylline	434.65			
479-21-0	(2,6-Dihydroxy-4-methoxyphenyl)phenylmethanone	403.65			
479-22-1	Nitranilic acid				
479-23-2	1,2-Dihydrobenz[j]aceanthrylene	443.55			
479-27-6	1,8-Naphthalenediamine	339.85		1126.59	1.682899
479-33-4	2,3,4,5-Tetraphenyl-2,4-cyclopentadien-1-one	495.45			
479-45-8	N-Methyl-N,2,4,6-tetranitroaniline	401.15		1571	
479-59-4	2,3,6,7-Tetrahydro-1H,5H-benzo[ij]quinolizine	313.15		1003.2	1.56825
479-61-8	α-Chlorophyll	425.45			
4795-29-3	Tetrahydro-2-furanmethanamine		426.15	975.22	1.45512
4798-44-1	1-Hexen-3-ol		407.15	834.22	1.429718
480-11-5	Oroxylin A	504.65			
480-15-9	Datiscetin	550.65			
480-16-0	Morin	576.65			
480-18-2	trans-3,3',4',5,7-Pentahydroxyflavanone, (±)-				
480-40-0	5,7-Dihydroxy-2-phenyl-4H-1-benzopyran-4-one	558.15			
480-41-1	Naringenin	523.15			
480-44-4	Acacetin	536.15			
480-54-6	Retrorsine	485.15			
480-63-7	2,4,6-Trimethylbenzoic acid	429.65			
480-64-8	2,4-Dihydroxy-6-methylbenzoic acid				
480-66-0	1-(2,4,6-Trihydroxyphenyl)ethanone	494.15			
480-68-2	5-Nitro-2,4,6(1H,3H,5H)-pyrimidinetrione	453.65			
480-81-9	Seneciphylline				
480-85-3	Retronecine, (+)	394.15			
480-91-1	2,3-Dihydro-1H-isoindol-1-one	424.15	611.15		
480-96-6	Benzofurazan, 1-oxide	345.15		1280.8	
4801-58-5	N-Hydroxypiperidine	312.45			
4806-61-5	Ethylcyclobutane	130.25	343.15	728.42	1.40202
481-05-0	Artemisin	476.15			
481-06-1	α-Santonin	448.15		1590.25	
481-20-9	Cholestane, (5β)	345.15		911.987	1.488488
481-21-0	Cholestane, (5α)	351.75		909.088	1.488788
481-26-5	5β-Pregnane	356.65		1032.15	
481-29-8	3-Hydroxyandrostan-17-one, (3β,5α)	451.15			
481-37-8	Ecgonine	478.15			
481-39-0	5-Hydroxy-1,4-naphthalenedione	428.15			
481-42-5	5-Hydroxy-2-methyl-1,4-naphthalenedione	351.65			
481-49-2	Cepharanthine	423.15			
481-72-1	1,8-Dihydroxy-3-(hydroxymethyl)-9,10-anthracenedione	496.65			
481-74-3	1,8-Dihydroxy-3-methyl-9,10-anthracenedione	469.15		922.5	
4813-57-4	Octadecyl acrylate				
48145-04-6	2-Phenoxyethyl acrylate			1090.25	
482-05-3	[1,1'-Biphenyl]-2,2'-dicarboxylic acid	506.65			
482-28-0	Cinchonamine	459.15			
482-44-0	Imperatorin	375.15			
482-66-6	16,17-Dihydro-15H-cyclopenta[a]phenanthrene	408.65			
482-68-8	Sarpagan-10,17-diol	593.15			
482-74-6	Cryptopine	496.15		1315.2	
482-89-3	Indigo				
4824-78-6	Bromophos-ethyl				
4829-04-3	1,3-Dithiolane	223.15	448.15	1259.17	1.597515
483-04-5	Raubasine				
483-17-0	7',10,11-Trimethoxyemetan-6'-ol	388.65			
483-18-1	Emetine	347.15			
483-55-6	2-Hydroxy-3-methyl-1,4-naphthalenedione	446.65			
483-64-7	Methyl 3-methoxy-2-(methylamino)benzoate	301.15	544.15		
483-65-8	7-Isopropyl-7-methylphenanthrene	368.55	664.15	1035.25	
483-76-1	cis-1,2,3,5,6,8a-Hexahydro-4,7-dimethyl-1-isopropylnaphthalene, (1S)-			916.015	1.508915
483-78-3	1,6-Dimethyl-4-isopropylnaphthalene		567.15	966.725	1.578525
4835-11-4	N,N'-Dibutyl-1,6-hexanediamine				1.447025
4839-46-7	3,3-Dimethylpentanedioic acid	376.65		1427.82	
484-11-7	2,9-Dimethyl-1,10-phenanthroline	436.15			
484-20-8	5-Methoxypsoralen	461.15			
484-29-7	4-Methoxyfuro[2,3-b]quinoline	406.65			
484-31-1	4,5-Dimethoxy-6-(2-propenyl)-1,3-benzodioxole	302.65	558.15	1159.815	1.530517
484-47-9	2,4,5-Triphenyl-1H-imidazole	548.15			
484-67-3	2,3,5,6-Tetrachloro-4-methoxyphenol	389.15			
484-89-9	Fumigatin	389.15			
484-93-5	Ecgonidine				
485-31-4	Binapacryl	343.75		1272	
485-35-8	Cytisine	426.15			
485-43-8	Iridomyrmecin	334.15			1.460765
485-47-2	1H-Indene-1,2,3-trione monohydrate				
485-64-3	Hydrocinchonidine	502.15			
485-65-4	Hydrocinchonine	541.65			
485-71-2	Cinchonidine	483.65			
485-72-3	Formononetin	529.65			
485-89-2	3-Hydroxy-2-phenyl-4-quinolinecarboxylic acid				
4850-28-6	1α,2α,4β-1,2,4-Trimethylcyclopentane	142.15	389.85	759.225	1.41862
486-12-4	Triprolidine	333.15			
486-25-9	9H-Fluoren-9-one	357.15	616.25	1130.099	1.630999
486-35-1	7,8-Dihydroxy-2H-1-benzopyran-2-one	535.15			
486-39-5	Coclaurine	493.65			
486-47-5	Ethaverine	373.15			
486-66-8	Daidzein				
486-70-4	trans-Octahydro-2H-quinolizine-1-methanol, (1R)-	343.15	543.15		
486-84-0	Harman	509.65			
486-86-2	Caulophylline	410.15			
486-89-5	Anagyrine				
4860-03-1	1-Chlorohexadecane	291.05	599.15	863.52	1.45032
487-06-9	5,7-Dimethoxy-2H-1-benzopyran-2-one	422.15			
487-16-1	1H-Indole-2,3-dione, 3-thiosemicarbazone	556.15			
487-21-8	2,4(1H,3H)-Pteridinedione	621.65			
487-26-3	2,3-Dihydro-2-phenyl-4H-1-benzopyran-4-one	349.45			
487-27-4	Scopoline	381.65	521.15	1089.1134	
487-68-3	2,4,6-Trimethylbenzaldehyde	287.15	511.65	1015.425	
487-79-6	Kainic acid				
487-89-8	1H-Indole-3-carboxaldehyde	470.95			
487-93-4	3-[2-(Dimethylamino)ethyl]-1H-indol-5-ol	419.65			
488-10-8	cis-3-Methyl-2-(2-pentenyl)-2-cyclopenten-1-one		531.15	943.722	1.497922
488-17-5	3-Methyl-1,2-benzenediol	341.15	521.15		
488-23-3	1,2,3,4-Tetramethylbenzene	266.45	478.15	905.22	1.52032
488-43-7	1-Amino-1-deoxy-D-glucitol	400.15			
488-70-0	2,3,4,5-Tetramethylphenol	357.15	535.15		
488-73-3	2-Deoxy-D-chiro-inositol	509.15		1584.513	
488-81-3	Ribitol	369.15			
488-84-6	D-Ribulose				
488-87-9	2,5-Dimethyl-1,3-benzenediol	436.15	551.65		
488-93-7	3-Furancarboxylic acid	394.85			
488-98-2	1-Fluoro-2-(trichloromethyl)benzene			1453.25	1.54322
4884-24-6	[1,1'-Bicyclopentyl]-2-one	260.15	505.65	974.521	1.4763
4884-25-7	[1,1'-Bicyclopentyl]-2-ol	293.15	506.15	978.515	1.488417
4885-02-3	1,1-Dichloromethyl methyl ether		359.15	1271.25	1.43002
489-72-5	17-Oxosparteine	357.15			
489-84-9	1,4-Dimethyl-7-isopropylazulene	304.65		973.2	
489-86-1	Guaiol	364.15		907.41	1.47161
489-98-5	2,4,6-Trinitroaniline	463.15		1762.1	
4891-38-7	Methyl 3-phenyl-2-propynoate	291.15		1083.025	1.561825
4894-61-5	trans-1-Chloro-2-butene		358.15	929.52	1.43502
4894-75-1	4-Phenylcyclohexanone	352.15			
4897-84-1	Methyl 4-bromobutanoate		459.65	1425	1.456725
490-02-8	Aspergillic acid	371.15			
490-03-9	2-Hydroxy-3-methyl-6-isopropyl-2-cyclohexen-1-one	356.15			
490-10-8	Nepetalactone			1066.325	1.485925
490-11-9	3,4-Pyridinedicarboxylic acid	529.15			
490-53-9	1,2,3,4-Tetrahydro-6,7-dimethoxy-1,2-dimethylisoquinoline, (±)-				
490-55-1	5-Phenyl-2,4-thiazolediamine				
490-64-2	2,4,5-Trimethoxybenzoic acid	418.15	573.15		
490-78-8	1-Acetyl-2,5-dihydroxybenzene	478.45			
490-79-9	2,5-Dihydroxybenzoic acid	477.15			
490-91-5	5-Isopropyl-2-methyl-2,5-cyclohexadiene-1,4-dione	318.65	505.15		
4900-30-5	1,8-Nonadiene		414.15	751.12	1.43022
4901-51-3	2,3,4,5-Tetrachlorophenol	389.15			
4904-61-4	1,5,9-Cyclododecatriene	256.15	513.15	841	
491-04-3	6-Isopropyl-3-methyl-2-cyclohexen-1-ol			911.925	1.472925
491-07-6	cis-2-Isopropyl-5-methylcyclohexanone		478.15	899.52	1.45272
491-09-8	3-Methyl-6-(1-methylethylidene)-2-cyclohexen-1-one			977.42	1.52942
491-31-6	1H-2-Benzopyran-1-one	320.15	559.15		
491-35-0	4-Methylquinoline	282.65	539.15	1083.2	1.62002
491-37-2	2,3-Dihydro-4H-1-benzopyran-4-one	312.25		1129.11	1.575
491-38-3	4H-1-Benzopyran-4-one	330.26		1290.02	
491-67-8	5,6,7-Trihydroxy-2-phenyl-4H-1-benzopyran-4-one				
491-70-3	Luteolin	601.15			
491-80-5	5,7-Dihydroxy-3-(4-methoxyphenyl)-4H-1-benzopyran-4-one	487.95			
491-88-3	Isopilosine	460.15			
4911-55-1	1,3-Pentadiyne	234.65	328.15	790.92	1.443121
4911-70-0	2,3-Dimethyl-2-pentanol			804.2	
4912-92-9	1,1-Dimethylindan		467.15	919.2	1.513525
4914-89-0	cis-3-Methyl-3-hexene		368.45	707.925	1.41262
4914-91-4	cis-3,4-Dimethyl-2-pentene	148.95	365.15	709.225	1.41042
4914-92-5	trans-3,4-Dimethyl-2-pentene	159.75	364.15	712.425	1.41282
492-17-1	[1,1'-Biphenyl]-2,4'-diamine	327.65	636.15		
492-22-8	9H-Thioxanthen-9-one	487.85	646.15		
492-27-3	4-Hydroxy-2-quinolinecarboxylic acid	555.65			
492-38-6	α-Methylenebenzeneacetic acid	379.65			
492-39-7	α-(1-Aminoethyl)benzenemethanol, [S-(R*,R*)]-	350.65			
492-61-5	β-D-Glucopyranose	422.15			
492-80-8	4,4'-Dimethylaminobenzophenonimide	409.15			
492-86-4	4-Chloro-α-hydroxybenzeneacetic acid	393.45			
492-88-6	3-Ethoxy-2-hydroxybenzaldehyde	337.25	537.15		
492-89-7	3-Pentadecyl-1,2-benzenediol	332.65			
492-94-4	Di-2-furanylethanedione	439.45			
492-97-7	2,2'-Bithiophene	304.25	533.15		
492-99-9	1,2-Cyclohexanedione dioxime	465.15			
493-01-6	cis-Decahydronaphthalene	230.25	468.95	896.52	1.48102
493-02-7	trans-Decahydronaphthalene	242.8	460.45	865.925	1.46952
493-05-0	3,4-Dihydro-1H-2-benzopyran	277.5		1067.25	1.54442
493-08-3	3,4-Dihydro-2H-1-benzopyran	269.84	488.75	1072.2	1.54442
493-09-4	2,3-Dihydro-1,4-benzodioxin		486.15	1180.2	1.54852
493-49-2	3,4-Dihydro-6,7-dimethoxy-1(2H)-isoquinolinone	448.15			
493-52-7	Methyl Red	456.15			
493-77-6	2,4,6-Triphenyl-1,3,5-triazine	530.15			
4930-98-7	2(1H)-Pyridinone hydrazone	319.75			
494-03-1	Chlornaphazine	328.15			
494-04-2	Nicotelline	421.15			
494-19-9	10,11-Dihydro-5H-dibenz[b,f]azepine				
494-47-3	Hydrofuramide	390.15			
494-52-0	3-(2-Piperidinyl)pyridine, (S)-	282.15	549.15	1045.52	1.54302
494-55-3	Hydrohydrastinine	339.15	576.15		
494-90-6	4,5,6,7-Tetrahydro-3,6-dimethylbenzofuran	359.15		972.15	
494-97-3	3-(2-Pyrrolidinyl)pyridine, (S)-		543.15	1073.719	1.537818
494-99-5	1,2-Dimethoxy-4-methylbenzene	297.15	494.15	1050.925	1.525725
4945-47-5	1-Methyl-N-phenyl-N-benzyl-4-piperidinamine	388.15			
4945-48-6	N-Butylpiperidine		447.15	824.52	1.44672
4949-44-4	Ethyl 3-oxopentanoate		464.15	1012.02	1.42302
495-08-9	2-(Hydroxymethyl)-1,4-benzenediol	373.15			
495-18-1	N-Hydroxybenzamide				
495-20-5	Conhydrine, (+)	394.15	499.15		
495-40-9	1-Phenyl-1-butanone	285.15	501.65	988.2	1.52032
495-41-0	1-Phenyl-2-buten-1-one	293.65		1025.15	1.562618
495-45-4	1,3-Diphenyl-2-buten-1-one		615.65	1108.015	1.63432
495-61-4	1-Methyl-4-(5-methyl-1-methylene-4-hexenyl)cyclohexene, (S)-			867.32	1.48802
495-69-2	N-Benzoylglycine	464.65		1371.2	
495-76-1	1,3-Benzodioxole-5-methanol	331.15			
495-85-2	Methysticin	410.15			
495-91-0	Chavicine				
496-03-7	2-Ethyl-3-hydroxyhexanal				
496-10-6	Octahydroindene	228.75	437.15	876.25	1.47022
496-11-7	Indan	221.81	450.95	963.92	1.53782
496-15-1	2,3-Dihydro-1H-indole		503.15	1069.2	1.59232
496-16-2	2,3-Dihydrobenzofuran	251.65	460.15	1058.25	1.54972
496-41-3	2-Benzofurancarboxylic acid	465.65	585.65		
496-46-8	Tetrahydroimidazo[4,5-d]imidazole-2,5(1H,3H)-dione	570.15			
496-49-1	1-(1-Methyl-2-pyrrolidinyl)-2-propanone, (R)-				1.45552
496-67-3	N-(Aminocarbonyl)-2-bromo-3-methylbutanamide	427.15		1561.5	
496-72-0	4-Methyl-1,2-benzenediamine	362.65	538.15		
496-73-1	4-Methyl-1,3-benzenediol	378.15	543.15		
496-74-2	4-Methyl-1,2-benzenedithiol	302.15			
496-77-5	5-Hydroxy-4-octanone	263.15	458.15	910.716	1.434516
496-78-6	2,4,5-Trimethylphenol	344.75	506.15		
497-03-0	trans-2-Methyl-2-butenal		387.15	871.02	1.44752
497-04-1	2-Chloro-1,3-propanediol			1321.92	1.48312
497-18-7	Carbonic dihydrazide	427.15		1616.2	
497-20-1	Fulvene			824.12	1.49202
497-26-7	2-Methyl-1,3-dioxolane		354.15	981.12	1.403517
497-30-3	Ergothioneine				
497-38-1	Bicyclo[2.2.1]heptan-2-one	371.15	443.15		
497-39-2	2,4-Di-tert-butyl-5-methylphenol	335.25	555.15	912.8	
497-59-6	3-Hydroxy-4-oxo-4H-pyran-2,6-dicarboxylic acid				
497-76-7	4-Hydroxyphenyl-β-D-glucopyranoside	472.65			