CASRN	Name	Tm	Tb	rho	RI
89-02-1	2,4-Dinitrobenzenesulfonic acid	381.15			
89-05-4	1,2,4,5-Benzenetetracarboxylic acid	544.15			
89-08-7	4-Sulfophthalic acid	412.15			
89-24-7	5-Phenyl-2,4-imidazolidinedione	457.65			
89-25-8	2,4-Dihydro-5-methyl-2-phenyl-3H-pyrazol-3-one	400.15			1.637
89-31-6	Salsoline	494.65			
89-32-7	1H,3H-Benzo[1,2-c:4,5-c']difuran-1,3,5,7-tetrone	559.15			
89-36-1	4-(4,5-Dihydro-3-methyl-5-oxo-1H-pyrazol-1-yl)benzenesulfonic acid				
89-37-2	2,4-Dinitrophenyl dimethylcarbamodithioate	425.65		1542	
89-39-4	1,4-Dimethoxy-2-nitrobenzene	345.65		1166.6132	
89-40-7	5-Nitro-1H-isoindole-1,3(2H)-dione	475.15			
89-51-0	2-Carboxybenzeneacetic acid	457.65		1410.02	
89-52-1	2-(Acetylamino)benzoic acid	460.65			
89-54-3	5-Amino-2-chlorobenzoic acid	461.15		1519.15	
89-55-4	5-Bromo-2-hydroxybenzoic acid	442.95			
89-56-5	2-Hydroxy-5-methylbenzoic acid	425.65			
89-57-6	5-Amino-2-hydroxybenzoic acid	554.15			
89-58-7	1,4-Dimethyl-2-nitrobenzene	248.15	513.65	1132.15	1.54132
89-59-8	4-Chloro-1-methyl-2-nitrobenzene	309.65	515.15	1255.98	
89-60-1	1-Chloro-4-methyl-2-nitrobenzene	280.35	534.15		1.55722
89-61-2	1,4-Dichloro-2-nitrobenzene	326.65	540.15	1439.75	1.439075
89-62-3	4-Methyl-2-nitroaniline	390.15		1161.21	
89-63-4	4-Chloro-2-nitroaniline	389.65			
89-64-5	4-Chloro-2-nitrophenol	360.35			
89-65-6	Erythorbic acid	441.15			
89-68-9	4-Chloro-5-methyl-2-isopropylphenol	336.15	531.65		
89-69-0	1,2,4-Trichloro-5-nitrobenzene	330.65	561.15	1790.23	
89-71-4	Methyl 2-methylbenzoate	228.77	488.15	1068.2	
89-72-5	2-sec-Butylphenol	291.15	502.15	980.425	1.520025
89-73-6	N,2-Dihydroxybenzamide	441.15			
89-74-7	1-(2,4-Dimethylphenyl)ethanone		501.15	1012.115	1.53402
89-75-8	2,4-Dichlorobenzoyl chloride	289.65			1.58952
89-79-2	5-Methyl-2-(1-methylvinyl)cyclohexanol, [1R-(1α,2β,5α)]	351.15		911.2	1.47232
89-82-7	Pulegone		497.15	934.645	1.48942
89-83-8	Thymol	322.75	506.15	970.25	1.52272
89-84-9	1-(2,4-Dihydroxyphenyl)ethanone	419.15		1181.41	
89-86-1	2,4-Dihydroxybenzoic acid	502.15			
89-87-2	2,4-Dimethyl-1-nitrobenzene	282.75	516.15	1135.15	1.547325
89-92-9	1-(Bromomethyl)-2-methylbenzene	294.15	490.15	1381.123	1.57302
89-93-0	2-Methylbenzenemethanamine	243.15	479.15	976.619	1.543619
89-95-2	2-Methylbenzenemethanol	311.15	497.15	1023.4	
89-96-3	1-Chloro-2-ethylbenzene	189.85	450.15	1056.92	1.52182
89-97-4	2-Chlorobenzenemethanamine				1.559425
89-98-5	2-Chlorobenzaldehyde	285.05	485.25	1248.32	1.56622
894-71-3	Nortriptyline hydrochloride	487.15			
89583-12-0	3,4-Dibromohexane			1602.72	1.50432
897-78-9	2,6-Dibenzylidenecyclohexanone	390.65			
90-00-6	2-Ethylphenol	291.15	477.65	1014.625	1.53672
90-01-7	2-Hydroxybenzenemethanol	360.15		1161.325	
90-02-8	Salicylaldehyde	266.15	481.15	1167.42	1.57402
90-04-0	2-Methoxyaniline	279.35	494.15	1092.32	1.57151
90-05-1	2-Methoxyphenol	301.45	477.15	1128.721	1.54292
90-11-9	1-Bromonaphthalene	279.25	553.15	1478.52	1.6582
90-12-0	1-Methylnaphthalene	242.72	517.55	1020.22	1.61702
90-13-1	1-Chloronaphthalene	267.15	532.15	1188.025	1.63262
90-14-2	1-Iodonaphthalene	280.15	576.15	1739.92	1.70262
90-15-3	1-Naphthol	368.25	561.15	1098.999	1.622499
90-19-7	Rhamnetin	568.15			
90-20-0	4-Amino-5-hydroxy-2,7-naphthalenedisulfonic acid				
90-24-4	2,4-Dimethoxy-6-hydroxyacetophenone	355.15			
90-26-6	α-Ethylbenzeneacetamide	359.15			
90-27-7	α-Ethylbenzeneacetic acid	320.65	544.15		
90-30-2	N-Phenyl-1-naphthalenamine	334.15			
90-33-5	7-Hydroxy-4-methyl-2H-1-benzopyran-2-one	467.65			
90-39-1	Sparteine	303.65	598.15	1019.62	1.53122
90-41-5	2-Aminobiphenyl	322.28	571.45		
90-42-6	[1,1'-Bicyclohexyl]-2-one	241.15	537.15	969.625	1.487725
90-43-7	2-Hydroxybiphenyl	330.75	554.15	1213.25	
90-44-8	9(10H)-Anthracenone	428.15			
90-45-9	9-Acridinamine	514.15			
90-46-0	9H-Xanthen-9-ol	398.15			
90-47-1	Xanthone	449.55	624.15		
90-59-5	3,5-Dibromo-2-hydroxybenzaldehyde	359.15			
90-60-8	3,5-Dichloro-2-hydroxybenzaldehyde	368.15			
90-65-3	3-Methoxy-5-methyl-4-oxo-2,5-hexadienoic acid	356.15			
90-69-7	Lobeline	403.65			
90-74-4	Rutinose				
90-80-2	δ-Lactone-D-gluconic acid				
90-81-3	Ephedrine, (±)-	349.65		1122.02	
90-84-6	2-(Diethylamino)-1-phenyl-1-propanone				
90-86-8	Cinnamedrine	348.15			
90-89-1	N,N-Diethyl-4-methyl-1-piperazinecarboxamide	322.65			
90-90-4	(4-Bromophenyl)phenylmethanone	355.65	623.15		
90-93-7	4,4'-Bis(diethylamino)benzophenone	368.45			
90-94-8	N,N,N',N'-Tetramethyl-4,4'-diaminobenzophenone	452.15			
90-98-2	4,4'-Dichlorobenzophenone	419.95	626.15	1450.02	
90-99-3	Chlorodiphenylmethane	290.15		1140.25	1.59512
900-95-8	(Acetyloxy)triphenylstannane	398.35			
9005-79-2	Glycogen				
902-04-5	2'-Deoxyguanosine 5'-monophosphate				
90982-32-4	Chlorimuron-ethyl	459.15			
91-00-9	α-Phenylbenzenemethanamine	307.15	577.15	1063.32	1.5963
91-01-0	Diphenylmethanol	338.15	575.15		
91-02-1	Phenyl-2-pyridinylmethanone	316.45	590.15	1155.62	
91-04-3	2-Hydroxy-5-methyl-1,3-benzenedimethanol	403.65			
91-08-7	Toluene-2,6-diisocyanate	291.45			
91-10-1	2,6-Dimethoxyphenol	329.65	534.15		
91-13-4	1,2-Bis(bromomethyl)benzene	368.15		1988.25	
91-14-5	o-Divinylbenzene			932.522	1.57672
91-15-6	o-Dicyanobenzene	413.75		1125.025	
91-16-7	1,2-Dimethoxybenzene	295.65	479.15	1081.025	1.582721
91-18-9	Pteridine	412.65			
91-19-0	Quinoxaline	305.65	500.15	1133.448	1.623148
91-20-3	Naphthalene	353.37	491.15	1025.32	1.589825
91-21-4	1,2,3,4-Tetrahydroisoquinoline	258.15	505.65	1064.224	1.56682
91-22-5	Quinoline	258.37	510.25	1097.715	1.62682
91-23-6	2-Nitroanisole	282.55	545.15	1254.02	1.51612
91-33-8	Benzthiazide	509.15			
91-40-7	2-(Phenylamino)benzoic acid	456.65			
91-44-1	7-(Diethylamino)-4-methyl-2H-1-benzopyran-2-one				
91-47-4	cis-α-(Phenylmethylene)benzeneacetic acid	447.15			
91-48-5	trans-α-(Phenylmethylene)benzeneacetic acid	411.15			
91-49-6	N-Butyl-N-phenylacetamide	297.65	554.15	991.22	1.51462
91-52-1	2,4-Dimethoxybenzoic acid	380.35			
91-53-2	6-Ethoxy-1,2-dihydro-2,2,4-trimethylquinoline			1026.25	1.56925
91-55-4	2,3-Dimethyl-1H-indole	380.65	557.15		
91-56-5	1H-Indole-2,3-dione	474.15			
91-57-6	2-Methylnaphthalene	307.75	514.25	1005.82	1.60154
91-58-7	2-Chloronaphthalene	331.17	530.15	1137.771	1.607913
91-59-8	2-Naphthylamine	383.15	579.35	1641.498	1.649398
91-60-1	2-Naphthalenethiol	354.15	561.15	1550.25	
91-62-3	6-Methylquinoline	251.15	538.15	1065.42	1.61572
91-63-4	2-Methylquinoline	270.48	520.55	1062.5	1.61162
91-64-5	2H-1-Benzopyran-2-one	341.15	574.85	935.2	
91-65-6	Cyclohexyldiethylamine		465.15	844.325	
91-66-7	N,N-Diethylaniline	251.85	489.15	930.72	1.54092
91-68-9	3-(Diethylamino)phenol	351.15	549.15		
91-73-6	N-Phenyl-N-benzylbenzenemethanamine	342.15		1044.48	1.60658
91-75-8	Antazoline	395.15			
91-76-9	6-Phenyl-1,3,5-triazine-2,4-diamine	499.65			
91-78-1	Hexahydro-1,3,5-triphenyl-1,3,5-triazine	417.15	458.15		
91-79-2	Thenyldiamine				1.59152
91-80-5	Methapyrilene				1.59152
91-81-6	N-Benzyl-N',N'-dimethyl-N-2-pyridinyl-1,2-ethanediamine				1.57625
91-82-7	Pyrrobutamine	322.15			
91-84-9	Pyrilamine				
91-88-3	2-[Ethyl(3-methylphenyl)amino]ethanol				1.55402
91-93-0	3,3'-Dimethoxybenzidine-4,4'-diisocyanate	385.15			
91-94-1	3,3'-Dichloro-p-benzidine	405.65			
91-96-3	4,4'-Bis(acetoacetamido)-3,3'-dimethyl-1,1'-biphenyl	485.15			
91-99-6	N,N-Bis(2-hydroxyethyl)-3-methylaniline	337.65			
910-31-6	3-Chlorocholest-5-ene, (3β)	369.15			
910-86-1	Tiocarlide	419.15			
91049-43-3	1,2-Pentanediol, (±)-		482.15	972.32	1.439719
911-45-5	Clomiphene	390.15			
914-00-1	Methacycline				
91465-08-6	Cyhalothrin	322.35			
915-67-3	Amaranth dye				
917-92-0	3,3-Dimethyl-1-butyne	194.95	311.15	662.325	1.37362
917-93-1	2-Chloro-2-methylpropanal		363.15	1053.15	1.416016
918-00-3	1,1,1-Trichloro-2-propanone		422.15	1435.2	1.463517
91840-99-2	2-Butanethiol	108.15	358.15	829.52	1.43662
91890-87-8	Ethyl 2-hydroxy-3-butenoate			1047.015	1.43613
919-19-7	Diethyl acetylphosphonate			1100.52	1.420026
919-30-2	3-(Triethoxysilyl)-1-propanamine			950.62	1.42252
919-31-3	3-(Triethoxysilyl)propanenitrile			974.2	
919-54-0	Acethion			1182	
919-86-8	Demeton-S-methyl			1202	1.50632
919-94-8	2-Ethoxy-2-methylbutane		374.65	760.625	1.388625
92-04-6	4-Phenyl-2-chlorophenol	350.15			
92-06-8	m-Terphenyl	360.05	648.15	1199.2	
92-13-7	Pilocarpine	307.15			
92-24-0	Naphthacene	627.15			
92-35-3	2,7-Dimethylthiachromine-8-ethanol	501.95			
92-36-4	4-(6-Methyl-2-benzothiazolyl)aniline	467.95	707.15		
92-39-7	2-Chloro-10H-phenothiazine	471.65			
92-41-1	2,7-Naphthalenedisulfonic acid	472.15			
92-43-3	1-Phenyl-3-pyrazolidinone	399.15			
92-44-4	2,3-Naphthalenediol	436.65			
92-48-8	6-Methyl-2H-1-benzopyran-2-one	349.65	577.15		
92-50-2	2-(Ethylphenylamino)ethanol				
92-51-3	Cyclohexylcyclohexane	276.834	512.15		
92-52-4	Biphenyl	342.08	528.35	1042	1.58877
92-53-5	4-Phenylmorpholine	331.45			
92-54-6	1-Phenylpiperazine		559.65	1062.12	1.58752
92-55-7	5-Nitro-2-furaldehyde diacetate	365.15			
92-59-1	N-Benzyl-N-ethylaniline	308.15	561.15	1001.55	1.594323
92-61-5	7-Hydroxy-6-methoxy-2H-1-benzopyran-2-one	477.15			
92-62-6	3,6-Acridinediamine	558.15			
92-66-0	4-Bromobiphenyl	360.15	582.15	932.725	
92-67-1	4-Aminobiphenyl	324.15	575.15		
92-69-3	4-Hydroxybiphenyl	443.15	578.15		
92-70-6	3-Hydroxy-2-naphthalenecarboxylic acid	495.65			
92-71-7	2,5-Diphenyloxazole	344.15	633.15	1094.01	1.62311
92-82-0	Phenazine	447.91			
92-83-1	9H-Xanthene	374.15	584.15		
92-84-2	10H-Phenothiazine	458.05	644.15		
92-85-3	Thianthrene	429.58	639.45	1442.02	
92-86-4	4,4'-Dibromo-1,1'-biphenyl	437.15	630.65		
92-87-5	p-Benzidine	400.15	674.15		
92-88-6	[1,1'-Biphenyl]-4,4'-diol	560.75			
92-91-1	1-[1,1'-Biphenyl]-4-ylethanone	394.15	599.15	1251	
92-92-2	4-Phenylbenzoic acid	483.15			
92-93-3	4-Nitrobiphenyl	386.05	613.15		
92-94-4	p-Terphenyl	486.95	649.15	1282.5	
92-95-5	p-Xenylcarbimide	329.15			
92-99-9	N,N,2-Trimethyl-6-quinolinamine	374.15	592.15		
920-37-6	2-Chloro-2-propenenitrile	208.15	361.65	1096.25	1.42902
920-46-7	2-Methyl-2-propenoyl chloride	213.15	370.15	1087.12	1.44352
920-66-1	1,1,1,3,3,3-Hexafluoro-2-propanol	271.15	332.15	1460.021	
921-47-1	2,3,4-Trimethylhexane		412.15	735.425	1.41442
922-28-1	3,4-Dimethylheptane		413.15	731.42	1.41082
922-54-3	meso-2,6-Diaminoheptanedioic acid				
922-55-4	L-Lanthionine				
922-62-3	3-Methyl-cis-2-pentene	138.05	343.55	688.625	1.40162
922-65-6	1,4-Pentadien-3-ol		388.65	860.23	1.440017
923-26-2	1,2-Propanediol 1-methacrylate			1066.25	1.44582
923-27-3	D-Lysine				
923-99-9	Tripropyl phosphite		479.65	941.72	1.42822
924-16-3	N-Nitrosodibutylamine				
924-42-5	N-(Hydroxymethyl)-2-propenamide	349.15			
924-43-6	sec-Butyl nitrite		338.15	872.62	1.37102
924-49-2	4-Amino-3-hydroxybutanoic acid, (±)-	491.15			
924-50-5	Methyl 3-methyl-2-butenoate	387.15	409.65	933.72	1.4322
925-15-5	Dipropyl succinate	267.25	521.15	1002.02	1.42502
925-21-3	Butyl maleate			1092.5	
925-54-2	2-Methylhexanal		414.15		
925-60-0	Propyl acrylate		394.15		
925-78-0	3-Nonanone	265.15	460.15	824.12	1.42082
926-02-3	tert-Butyl vinyl ether	161.15	348.15	769.12	1.39222
926-06-7	Isopropyl methanesulfonate				
926-26-1	Di-tert-butyl succinate	309.65			
926-39-6	Ethanolamine O-sulfate				
926-56-7	4-Methyl-1,3-pentadiene		349.15	718.12	1.45322
926-63-6	N,N-Dimethyl-1-propanamine		338.15	715.22	1.38602
926-64-7	(Dimethylamino)acetonitrile		409.15	864.92	1.40952
926-65-8	Isopropyl vinyl ether	133.15	329.15	753.42	1.38402
926-82-9	3,5-Dimethylheptane		408.15	722.52	1.40832
927-49-1	6-Undecanone	287.15	500.55	830.82	1.42702
927-60-6	4-Hydroxybutyramide	325.15			
927-62-8	Butyldimethylamine		365.35	720.62	1.39702
927-68-4	2-Bromoethyl acetate	259.35	432.15	1514.2	1.45723
927-73-1	4-Chloro-1-butene		347.15	921.12	1.42332
927-74-2	3-Butyn-1-ol	209.65	402.15	925.72	1.44092
927-80-0	Ethoxyacetylene		323.15	800.02	1.37962
928-45-0	Butyl nitrate		406.15	1022.83	1.401323
928-49-4	3-Hexyne	169.15	354.65	723.12	1.41152
928-51-8	4-Chloro-1-butanol			1088.32	1.45182
928-53-0	Maleonitrile	304.65			
928-65-4	Trichlorohexylsilane		463.15	1110.02	
928-68-7	6-Methyl-2-heptanone		439.15	815.12	1.41622
928-80-3	3-Decanone	275.15	485.15	825.12	1.42522
928-92-7	trans-4-Hexen-1-ol		432.15	851.32	1.44022
928-94-9	cis-2-Hexen-1-ol		430.15	847.22	1.43972
928-95-0	trans-2-Hexen-1-ol		445.15	849.016	1.43402
928-96-1	cis-3-Hexen-1-ol		430.15	847.822	1.43802
928-97-2	trans-3-Hexen-1-ol		426.15		1.43742
929-06-6	2-(2-Aminoethoxy)ethanol	260.65	496.25	1057.22	
929-73-7	Dodecylamine hydrochloride	455.15			
929-77-1	Methyl docosanoate	326.45	675.15		1.43396
93-00-5	6-Amino-2-naphthalenesulfonic acid				
93-01-6	6-Hydroxy-2-naphthalenesulfonic acid	398.15			
93-02-7	2,5-Dimethoxybenzaldehyde	325.15	543.15		
93-03-8	3,4-Dimethoxybenzenemethanol		571.15	1178.17	1.55517
93-04-9	2-Methoxynaphthalene	346.65	543.15		
93-05-0	N,N-Diethyl-1,4-benzenediamine		534.15		
93-07-2	3,4-Dimethoxybenzoic acid	454.15			
93-08-3	2-Acetonaphthone	325.15	575.15		
93-09-4	2-Naphthalenecarboxylic acid	458.15		1077.1	
93-10-7	2-Quinolinecarboxylic acid	429.15			
93-11-8	2-Naphthalenesulfonyl chloride	354.15			
93-14-1	3-(2-Methoxyphenoxy)-1,2-propanediol	351.65			
93-15-2	4-Allyl-1,2-dimethoxybenzene	271.15	527.85	1039.62	1.53402
93-18-5	2-Ethoxynaphthalene	310.65	555.15	1064.02	1.597536
93-25-4	2-Methoxybenzeneacetic acid	397.15			
93-26-5	N-(2-Methoxyphenyl)acetamide	360.65	577.15		
93-28-7	4-Allyl-2-methoxyphenyl acetate	303.65	554.15	1080.62	1.52052
93-35-6	7-Hydroxy-2H-1-benzopyran-2-one	503.65			
93-37-8	2,7-Dimethylquinoline	334.15	533.15		
93-39-0	7-(β-D-Glucopyranosyloxy)-2H-1-benzopyran-2-one	493.15			
93-40-3	3,4-Dimethoxybenzeneacetic acid	371.15			
93-42-5	2-Mercapto-N-2-naphthylacetamide	384.65			
93-44-7	2-Naphthyl benzoate	380.95			
93-46-9	N,N'-Di-2-naphthyl-1,4-benzenediamine	508.15			
93-50-5	4-Chloro-2-methoxyaniline	325.15	533.15		
93-51-6	2-Methoxy-4-methylphenol	278.65	490.15	1098.2	1.535325
93-52-7	(1,2-Dibromoethyl)benzene	346.15			
93-53-8	α-Methylbenzeneacetaldehyde		479.55	1008.92	1.51762
93-54-9	α-Ethylbenzenemethanol		492.15	991.525	1.516923
93-55-0	1-Phenyl-1-propanone	291.75	490.55	1009.62	1.52692
93-56-1	1-Phenyl-1,2-ethanediol	339.15	546.15		
93-58-3	Methyl benzoate	260.8	472.15	1083.725	1.51642
93-59-4	Benzenecarboperoxoic acid	315.15			
93-60-7	Methyl 3-pyridinecarboxylate	312.65	477.15		
93-61-8	N-Methyl-N-phenylformamide	287.65	516.15	1094.82	1.55892
93-68-5	N-(2-Methylphenyl)-3-oxo-butanamide	380.65			
93-69-6	N-o-Tolylbiguanide	418.15			
93-70-9	N-(2-Chlorophenyl)-3-oxo-butanamide	379.65			
93-71-0	2-Chloro-N,N-diallylacetamide			1088.25	1.493225
93-72-1	Silvex	453.85			
93-75-4	Thioquinox	453.15			
93-76-5	2,4,5-Trichlorophenoxyacetic acid	428.35			
93-79-8	Butyl (2,4,5-trichlorophenoxy)acetate	301.65	610.15		
93-88-9	N,β-Dimethylbenzeneethanamine		480.65	915.25	
93-89-0	Ethyl benzoate	238.65	485.65	1041.525	1.50072
93-90-3	2-(Methylphenylamino)ethanol			1014.3	
93-91-4	1-Phenyl-1,3-butanedione	333.15	530.15	1059.974	1.567878
93-92-5	α-Methylbenzenemethanol, acetate				
93-97-0	Benzoic anhydride	315.75	633.15	1989.15	1.576715
93-98-1	N-Phenylbenzamide	433.15		1315.25	
93-99-2	Phenyl benzoate	336.15	587.15	1235.2	
930-02-9	Octadecyl vinyl ether	303.15		813.84	
930-18-7	cis-1,2-Dimethylcyclopropane	132.23	310.15	688.925	1.38292
930-21-2	2-Azetidinone	346.65			
930-22-3	Vinyloxirane		341.15	900.625	1.41682
930-27-8	3-Methylfuran		339.15	923.18	1.433019
930-28-9	Chlorocyclopentane		386.25	1005.12	1.45102
930-30-3	2-Cyclopenten-1-one		409.15	989.15	1.462915
930-36-9	1-Methyl-1H-pyrazole		400.15	992.913	1.478713
930-37-0	(Methoxymethyl)oxirane		384.15	989.02	1.43202
930-55-2	N-Nitrosopyrrolidine		487.15	1085.25	1.488025
930-62-1	2,4-Dimethyl-1H-imidazole	365.15	540.15		
930-66-5	1-Chlorocyclohexene		413.15	1036.119	1.47972
930-68-7	2-Cyclohexen-1-one	220.15	445.45	962.025	1.48832
930-87-0	1,2,5-Trimethyl-1H-pyrrole		441.15	807.25	1.49692
930-89-2	cis-1-Ethyl-2-methylcyclopentane	167.25	401.15	785.22	1.42932
930-90-5	trans-1-Ethyl-2-methylcyclopentane	164.15	394.15	764.925	1.42192
931-03-3	1H-Pyrrole-3-carboxylic acid	434.65			
931-19-1	2-Methylpyridine-1-oxide	322.95	533.15		
931-20-4	1-Methyl-2-piperidinone		494.15	1026.325	1.48202
931-51-1	Cyclohexylmagnesium chloride				
931-54-4	Isocyanobenzene			981.5	
931-56-6	Methoxycyclohexane	198.85	405.15	875.62	1.43552
931-87-3	cis-Cyclooctene	260.15	418.15	847.22	1.46982
931-89-5	trans-Cyclooctene	214.15	419.15	848.32	1.474125
931-97-5	1-Hydroxycyclohexanecarbonitrile	308.15		1017.22	1.46932
932-16-1	1-(1-Methyl-1H-pyrrol-2-yl)ethanone			1044.515	1.540315
932-43-4	cis-1-Methyl-2-propylcyclopentane	168.25	425.75	788.125	1.43432
932-44-5	trans-1-Methyl-2-propylcyclopentane	150.15	420.15	773.525	1.42742
932-52-5	5-Amino-2,4(1H,3H)-pyrimidinedione				
932-53-6	6-Methyl-1,2,4-triazine-3,5(2H,4H)-dione	484.15			
932-66-1	1-(1-Cyclohexen-1-yl)ethanone	346.15	475.15	965.52	1.48812
932-96-7	4-Chloro-N-methylaniline		513.15	1169.11	1.58352
933-48-2	cis-3,3,5-Trimethylcyclohexanol	310.45	475.15	900.616	1.455016
933-52-8	2,2,4,4-Tetramethyl-1,3-cyclobutanedione				
933-67-5	7-Methyl-1H-indole	356.15	539.15	1020.21	
933-75-5	2,3,6-Trichlorophenol	331.15			
933-78-8	2,3,5-Trichlorophenol	335.15			
933-88-0	2-Methylbenzoyl chloride		486.65		1.55492
933-98-2	3-Ethyl-1,2-dimethylbenzene	223.65	467.15	888.125	1.51172
934-00-9	3-Methoxy-1,2-benzenediol	315.95			
934-32-7	1H-Benzimidazol-2-amine	505.05			
934-34-9	2(3H)-Benzothiazolone	412.15	633.15		
934-53-2	(1-Chloro-1-methylethyl)benzene			1192.25	1.529025
934-74-7	1-Ethyl-3,5-dimethylbenzene	188.85	457.15	860.825	1.49812
934-80-5	4-Ethyl-1,2-dimethylbenzene	206.25	462.15	870.625	1.50312
935-05-7	Benzyl nitrite			1075.25	1.498925
935-07-9	Acetaldehyde phenylhydrazone	372.65			
935-79-5	cis-3a,4,7,7a-Tetrahydro-1,3-isobenzofurandione	371.15			
935-95-5	2,3,5,6-Tetrachlorophenol	388.15			
936-02-7	2-Hydroxybenzoic acid, hydrazide	421.15			
936-58-3	α-Allylbenzenemethanol		501.65	1004.18	1.528921
936-59-4	3-Chloro-1-phenyl-1-propanone	322.65			
937-05-3	cis-4-tert-Butylcyclohexanol	355.15			
937-14-4	3-Chlorobenzenecarboperoxoic acid				
937-20-2	2-Chloro-1-(4-chlorophenyl)ethanone	374.65	543.15		
937-30-4	4'-Ethylacetophenone				
937-32-6	4-Nitrobenzenesulfenyl chloride	325.15			
937-33-7	N-tert-Butylaniline		488.15		1.52702
937-39-3	Benzeneacetic acid, hydrazide	388.65			
938-16-9	2,2-Dimethyl-1-phenyl-1-propanone		493.15	963.26	1.508619
938-45-4	1-(2-Hydroxy-5-methylphenyl)-1-propanone	274.15		1084.114	1.54913
938-55-6	2-Dimethylaminopurine	536.15			
938-73-8	2-Ethoxybenzamide	406.15			
939-23-1	4-Phenylpyridine	347.15	554.15		
939-26-4	2-(Bromomethyl)naphthalene	329.15			
939-27-5	2-Ethylnaphthalene	265.75	532.15	992.22	1.59992
939-48-0	Isopropyl benzoate		491.15	1016.315	1.48902
939-52-6	4-Chloro-1-phenyl-1-butanone	292.65		1137.25	1.54592
939-58-2	trans-o-Chlorocinnamic acid	485.15			
939-97-9	4-tert-Butylbenzaldehyde			970	1.52702
94-02-0	Ethyl benzoylacetate	273.15		1120.215	1.531715
94-05-3	Ethyl 2-cyano-3-ethoxyacrylate	325.15	463.65		
94-07-5	4-Hydroxy-α-[(methylamino)methyl]benzenemethanol	457.65			
94-08-6	Ethyl 4-methylbenzoate		509.15	1026.918	1.508918
94-09-7	Ethyl 4-aminobenzoate	362.75	583.15		
94-11-1	Isopropyl (2,4-dichlorophenoxy)acetate	278.15		1262.5	1.520925
94-12-2	Propyl 4-aminobenzoate	346.25			
94-13-3	Propyl 4-hydroxybenzoate	369.25		1063.0102	1.5050102
94-14-4	Isobutyl 4-aminobenzoate	337.65			
94-17-7	Bis(4-chlorobenzoyl) peroxide	414.15			
94-18-8	Phenylmethyl 4-hydroxybenzoate				
94-20-2	Chloropropamide	401.15			
94-25-7	Butyl 4-aminobenzoate	330.15			
94-26-8	Butyl 4-hydroxybenzoate	341.65			
94-28-0	Triethylene glycol bis(2-ethylhexanoate)				
94-30-4	Ethyl 4-methoxybenzoate	280.65	539.15	1103.82	1.52542
94-33-7	1,2-Ethanediol, monobenzoate	318.15		1110.13	
94-36-0	Benzoyl peroxide	377.65			1.543
94-44-0	Benzyl 3-pyridinecarboxylate				
94-46-2	3-Methylbutyl benzoate		532.15	993.15	
94-49-5	1,2-Ethanediol, dibenzoate	346.65			
94-52-0	5-Nitro-1H-benzimidazole	480.95			
94-53-1	1,3-Benzodioxole-5-carboxylic acid	502.15			