CASRN	Name	Tm	Tb	rho	RI
3333-52-6	Tetramethylsuccinonitrile	442.15		1070.25	
3337-71-1	Asulam	417.35			
3338-55-4	cis-3,7-Dimethyl-1,3,6-octatriene			799.2	
334-25-8	Adipamic acid	434.65			
334-48-5	Decanoic acid	304.54	543.15	885.84	1.42884
334-56-5	1-Fluorodecane	238.15	462.15	819.42	1.4085
334-88-3	Diazomethane	128.15	250.15		
33401-87-5	Panose				
33404-34-1	Cellotriose	481.15			
33419-42-0	Etoposide	516.15			
3344-70-5	1,12-Dibromododecane	314.15			
33467-76-4	trans-2-Hepten-1-ol		451.15	851.62	1.44602
3347-22-6	Dithianone	493.15			
335-05-7	Trifluoromethanesulfonyl fluoride		251.45		
335-36-4	Perfluoro-2-butyltetrahydrofuran		378.35		
335-44-4	2,2,3-Trichloro-1,1,1,3,4,4,4-heptafluorobutane	275.15	370.15	1748.42	1.35302
335-48-8	1,4-Dibromooctafluorobutane		371.15		
335-57-9	Perfluoroheptane	221.85	355.65	1733.32	1.26182
335-67-1	Pentadecafluorooctanoic acid	327.45	465.15		
335-76-2	Nonadecafluorodecanoic acid		492.15		
3350-30-9	Cyclononanone	305.05		956.02	1.47292
3350-78-5	3-Methyl-2-butenoyl chloride		419.15	1065.25	1.47702
3351-31-3	3-Methylchrysene	445.05			
3351-86-8	Fucoxanthin	441.15			
3352-87-2	N,N-Diethyldodecanamide			847.25	1.45452
33560-15-5	Isobutyl trichloroacetate		461.15	1263.62	1.44832
336-59-4	Heptafluorobutanoic anhydride	230.15	379.65	1665.2	1.2852
3360-41-6	Benzenebutanol		537.15		1.52142
33605-72-0	N-Benzyloxycarbonylaspartame	395.15			
33629-47-9	Butralin	332.45			
33665-90-6	Acesulfame	396.35			
3373-53-3	6-Amino-1,3-dihydro-2H-purin-2-one	633.15			
3377-86-4	2-Bromohexane		412.15	1165.82	1.483225
3377-87-5	3-Bromohexane		416.15	1179.92	1.44722
3378-72-1	N-tert-Butylbenzenemethanamine				1.495125
338-65-8	1-Chloro-2,2-difluoroethane		308.15		
338-69-2	D-Alanine				
338-83-0	Tris(perfluoropropyl)amine		402.85	1822.4	1.27925
33820-53-0	Isopropalin				
3383-96-8	Abate	304.75		1320	
3385-78-2	Trimethylindium		408.85	1568.19	
3385-94-2	Hexamethyldisilathiane		435.65	851.2	
33857-26-0	2,7-Dichlorodibenzo-p-dioxin	483.15			
3386-33-2	1-Chlorooctadecane	301.75	610.15	861.62	1.45242
33880-83-0	β-Elemene			874.92	1.49352
339-43-5	4-Amino-N-[(butylamino)carbonyl]benzenesulfonamide	417.65			
3391-10-4	4-Chloro-α-methylbenzenemethanol				1.55052
3391-86-4	1-Octen-3-ol		447.15	839.513	1.439112
3395-91-3	Methyl 3-bromopropanoate			1412.318	1.45422
33966-50-6	sec-Butylamine	168.65	335.86	724.62	1.39322
3397-62-4	6-Chloro-1,3,5-triazine-2,4-diamine	603.15			
33979-03-2	2,2',4,4',6,6'-Hexachlorobiphenyl	386.85			
3399-22-2	Dimethyl trans-1,4-cyclohexanedicarboxylate	344.15			
33996-33-7	trans-1-Acetyl-4-hydroxy-L-proline	405.15			
3400-45-1	Cyclopentanecarboxylic acid	266.15	485.15	1052.72	1.45322
34014-18-1	Tebuthiuron	436.65			
3404-61-3	3-Methyl-1-hexene		357.15	687.125	1.39652
3404-67-9	3-Methyl-4-methylenehexane		386.15	725.25	1.41422
3404-71-5	2-Ethyl-1-pentene		367.15	707.92	1.4052
3404-72-6	2,3-Dimethyl-1-pentene	136.15	357.15	705.12	1.40332
3404-73-7	3,3-Dimethyl-1-pentene	138.75	350.15	697.42	1.39842
3404-78-2	2,5-Dimethyl-2-hexene		386.15	718.22	1.41402
3411-95-8	2-(2-Benzothiazolyl)phenol	404.15			
3416-24-8	2-Amino-2-deoxy-D-glucose				
3417-91-2	L-Tyrosine, methyl ester, hydrochloride	464.15			
3424-93-9	4-Methoxybenzamide	439.65	568.15		
34256-82-1	Acetochlor				1.52722
3426-01-5	1,4-Diphenyl-3,5-pyrazolidinedione	506.65			
3428-24-8	4,5-Dichloro-1,2-benzenediol	389.65			
343-65-7	L-Kynurenine				
343-94-2	1H-Indole-3-ethanamine, monohydrochloride	528.15			
34316-15-9	Chelerythrine		480.15		
3433-37-2	2-Piperidinemethanol	342.15			
3433-80-5	1-Bromo-2-(bromomethyl)benzene	304.15			
3437-89-6	3-(Phenylmethylene)-2-pentanone			1000.522	1.565022
3437-95-4	2-Iodothiophene	233.15	440.15	2059.525	1.646525
3438-46-8	4-Methylpyrimidine	305.15	415.15	1030.16	1.5002
3439-97-2	Methyltriphenoxysilane			1135.2	1.55992
344-04-7	Bromopentafluorobenzene	242.15	406.15	1981.25	1.44902
344-07-0	Chloropentafluorobenzene		391.11	1568.25	1.42562
3440-02-6	Dimethyldiphenoxysilane	250.15		1059.925	1.53302
3442-78-2	2-Methylpyrene	416.15	682.95		
3445-11-2	1-(2-Hydroxyethyl)-2-pyrrolidinone	293.15	568.15	1143.52	
34451-18-8	Butyl lactate			974.427	
345-35-7	1-(Chloromethyl)-2-fluorobenzene		445.15	1216.25	1.51502
3452-07-1	1-Eicosene	301.65	614.15	788.23	1.44403
3452-09-3	1-Nonyne	223.15	423.95	765.82	1.42172
3452-97-9	3,5,5-Trimethyl-1-hexanol		466.15	823.625	1.430025
34522-32-2	N-(D-1-Carboxyethyl)-L-arginine	554.15			
3453-79-0	Triisobutyl aluminate				
3454-07-7	4-Ethylstyrene	223.45	465.15	888.425	1.53762
3457-46-3	Bis(4-chlorophenyl)ethanedione	470.95			
3458-28-4	D-Mannose	391.15		1539.2	
34590-94-8	Dipropylene glycol monomethyl ether	193.15	476.15	950	1.41902
346-18-9	Polythiazide	487.15			
3460-67-1	Furonazide	475.45			
34612-38-9	Maltotetraose				
34619-03-9	Di-tert-butyl carbonate	313.15	447.15		
34620-76-3	Maltopentaose	351.15			
3463-92-1	Carpaine	394.15			
34698-41-4	1-Indanamine		494.15	1038.15	1.56132
34713-94-5	2-Methyl-1-butanol, (±)-		402.15	815.225	1.40922
3473-63-0	Methanimidamide, monoacetate	434.65			
3476-89-9	1,2,3,4-Tetrahydroquinoxaline	372.15	562.15		
348-51-6	1-Chloro-2-fluorobenzene	230.15	410.75	1223.33	1.49183
348-52-7	1-Fluoro-2-iodobenzene	231.65	461.75		1.59102
348-54-9	2-Fluoroaniline	244.15	448.15	1151.321	1.54212
3483-82-7	N-Benzoyl-L-tyrosine ethyl ester	392.65			
34883-39-1	2,5-Dichlorobiphenyl				
34885-03-5	4-Methylcyclohexanemethanol			907.42	1.46172
34893-92-0	3,5-Dichlorophenyl isocyanate	306.15		1380	
349-88-2	4-Fluorobenzenesulfonyl chloride	303.15			
3497-00-5	Phenylphosphonothioic dichloride			1376.13	
34980-39-7	Laminaribiose	478.15			
350-03-8	1-(3-Pyridinyl)ethanone	286.65	498.15		1.53412
350-30-1	2-Chloro-1-fluoro-4-nitrobenzene	314.65	502.65		
350-46-9	1-Fluoro-4-nitrobenzene	299.65	478.15	1330.02	1.53162
350-50-5	(Fluoromethyl)benzene	238.15	415.15	1022.825	1.489225
35065-27-1	2,2',4,4',5,5'-Hexachlorobiphenyl	376.65			
3508-00-7	1-Bromoheptadecane	301.55	618.15	991.62	1.46252
35161-71-8	N-Methyl-2-propyn-1-amine		356.15	819.25	1.43322
35182-51-5	4-(1-Ethylpropyl)pyridine	398.65	490.15	908.525	1.4090525
352-11-4	1-(Chloromethyl)-4-fluorobenzene			1214.32	1.513
352-32-9	4-Fluorotoluene	216.55	389.75	997.52	1.46992
352-33-0	1-Chloro-4-fluorobenzene	246.35	403.15	1499.015	1.499015
352-34-1	1-Fluoro-4-iodobenzene	246.15	456.15	1952.315	1.527022
352-70-5	3-Fluorotoluene	183.95	389.15	997.42	1.46912
352-93-2	Diethyl sulfide	169.25	365.25	836.22	1.44302
352-97-6	Guanidinoacetic acid	555.15			
3521-91-3	1-Hepten-4-ol		425.25	838.422	1.43472
3522-94-9	2,2,5-Trimethylhexane	167.25	397.15	707.22	1.39972
3524-62-7	2-Methoxy-1,2-diphenylethanone	322.65		1127.814	
3524-68-3	2,2-Bis(hydroxymethyl)-1,3-propanediol, tri(2-propenoyl) ester			1180.2	
3524-73-0	5-Methyl-1-hexene		358.15	687.725	1.39672
3524-75-2	Allylcyclopentane	162.55	400.15	793.25	1.44122
35274-05-6	Hexadecyl 2-hydroxypropanoate	314.15			1.44104
3528-17-4	2,3-Dihydro-4H-1-benzothiopyran-4-one	302.15		1248.714	1.63952
353-09-3	3-Guanidinopropanoic acid	483.15			
353-36-6	Fluoroethane	129.95	235.45		1.26562
353-42-4	Boron trifluoride - dimethyl ether complex	259.15		1241.02	1.3022
353-49-1	Carbonyl chloride fluoride	125.15	225.95		
353-50-4	Carbonyl fluoride	159.15	188.65		
353-54-8	Tribromofluoromethane	199.55	381.15		
353-55-9	Dibromochlorofluoromethane		353.45	2317.322	1.45702
353-58-2	Bromodichlorofluoromethane		325.95	1952.2	
353-59-3	Bromochlorodifluoromethane	113.65	269.25		
353-61-7	2-Fluoro-2-methylpropane		285.25		
353-66-2	Difluorodimethylsilane	185.65	275.65		
353-83-3	1,1,1-Trifluoro-2-iodoethane		327.65	2132.5	1.40092
353-85-5	Trifluoroacetonitrile		204.35		
35305-13-6	1-Methyl-2-propylpiperidine, (S)-		447.15	832.622	1.453812
35306-33-3	Gelsemine, monohydrochloride	599.15			
3531-19-9	2-Chloro-4,6-dinitroaniline	430.15			
35367-38-5	Diflubenzuron	501.15			
354-04-1	1,2-Dibromo-1,1,2-trifluoroethane		349.15	2274.27	1.419124
354-06-3	1-Bromo-2-chloro-1,1,2-trifluoroethane		325.55	1857.425	1.37382
354-11-0	1,1,1,2-Tetrachloro-2-fluoroethane	177.85	390.25		
354-12-1	1,1,1-Trichloro-2,2-difluoroethane		348.15		
354-14-3	1,1,2,2-Tetrachloro-1-fluoroethane	190.55	389.85	1549.717	1.43902
354-15-4	1,2,2-Trichloro-1,2-difluoroethane	99.15	346.35		
354-21-2	1,2,2-Trichloro-1,1-difluoroethane	123.15	345.05	1544.72	1.38892
354-23-4	1,2-Dichloro-1,1,2-trifluoroethane	195.15	303.15	1502.5	
354-25-6	1-Chloro-1,1,2,2-tetrafluoroethane	156.15	260.15		
354-32-5	Trifluoroacetyl chloride	127.15	246.15		
354-33-6	Pentafluoroethane	172.55	225.06		
354-38-1	2,2,2-Trifluoroacetamide	346.95	435.65		
354-51-8	1,2-Dibromo-1-chloro-1,2,2-trifluoroethane	323.15	365.95		
354-55-2	Bromopentafluoroethane		252.15	1809.825	
354-56-3	Pentachlorofluoroethane	374.15	411.15	1742.5	
354-58-5	1,1,1-Trichloro-2,2,2-trifluoroethane	287.517	319.15	1579.02	1.361035
354-92-7	Perfluoroisobutane		273.15		
354-96-1	Perfluoro-2,3-dimethylbutane	258.05	332.95		
3540-95-2	1-(3,3-Diphenylpropyl)piperidine	314.65			
35400-43-2	Sulprofos			1202	1.5859
35408-04-9	trans-2-Pinanol	333.15			
3546-03-0	Cyamemazine	365.15			
355-02-2	Perfluoromethylcyclohexane	234.15	349.45	1787.825	1.28517
355-04-4	Perfluoro-2-methylpentane		330.75	1732.62	1.256422
355-25-9	Perfluorobutane	144.15	271.05	1648.425	
355-42-0	Perfluorohexane	187.05	330.35	1691.02	1.25152
355-63-5	Perfluoro-1-heptene		354.15		
355-68-0	Perfluorocyclohexane	336.05			
355-75-9	Perfluorocyclohexene		324.85	1665.025	1.2932
355-80-6	2,2,3,3,4,4,5,5-Octafluoro-1-pentanol		413.15	1664.72	1.31782
3554-74-3	1-Methyl-3-piperidinol			963.516	1.47352
35554-44-0	Imazalil	323.35		1243.23	
35573-93-4	3-Chloro-1,1-diethoxypropane			995.119	1.42682
356-16-1	1,1,2,2-Tetrafluoro-1,2-dinitroethane	231.65	331.65	1602.425	1.326525
356-18-3	1,2-Dichloro-1,2,3,3,4,4-hexafluorocyclobutane	248.95	332.65		
356-24-1	Methyl heptafluorobutanoate	191.45	353.15	1483.2	1.2952
356-27-4	Ethyl heptafluorobutanoate		368.15	1394.2	1.30112
35608-64-1	Ethyl 3-hydroxybutanoate, (±)-		458.15	1017.2	1.41822
3564-09-8	Ponceau 3R				
3566-44-7	N-(4-Methoxyphenyl)-p-phenylenediamine hydrochloride				
3567-38-2	α-Ethynylbenzenemethanol carbamate	359.65			
35691-65-7	2-Bromo-2-(bromomethyl)pentanedinitrile	325.15			
35693-92-6	2,4,6-Trichlorobiphenyl	334.25			
357-57-3	Brucine	451.15			
357-67-5	5,5-Diethyl-1-phenyl-2,4,6(1H,3H,5H)-pyrimidinetrione	451.15			
357-70-0	Galanthamine	399.65			
3570-55-6	Bis(2-mercaptoethyl) sulfide	262.15		1183.25	1.59822
3570-75-0	Nifurthiazole				
3577-01-3	Cephaloglycin				
35794-11-7	3,5-Dimethylpiperidine		417.15	853.25	1.44542
358-72-5	3,3-Dimethylallyl diphosphate				
3581-87-1	2-Methylthiazole		401.92		1.51
3581-91-7	4,5-Dimethylthiazole	356.65	431.15	1069.92	
3582-71-6	1,5-Dichloro-1,1,3,3,5,5-hexamethyltrisiloxane	220.15	457.15	1018.2	
3586-12-7	3-Phenoxyaniline	310.15	588.15	1158.325	
3586-14-9	1-Methyl-3-phenoxybenzene		545.15	1051.25	1.57272
3587-57-3	1-(Chloromethoxy)propane		382.15	988.42	1.41252
3587-60-8	[(Chloromethoxy)methyl]benzene			1135.02	1.51922
3588-30-5	2-Methoxy-1,3-butadiene		347.15	827.22	1.44422
359-01-3	2-Fluorobutane	151.75	296.15	755.925	
359-02-4	1,1-Dichloro-2-fluoroethene	164.35	311.15	1373.216	1.403116
359-06-8	Fluoroacetyl chloride		345.15		
359-10-4	1-Chloro-2,2-difluoroethene	134.65	254.35		
359-11-5	Trifluoroethene		220.15		
359-28-4	1,1,2-Trichloro-2-fluoroethane		375.55	1539.32	1.43902
359-35-3	1,1,2,2-Tetrafluoroethane	184.15	253.15		
359-83-1	Pentazocine	420.15			
3599-32-4	Indocyanine green				
360-89-4	Perfluoro-2-butene	144.15	267.25	1529.725	
360-97-4	5-Amino-1H-imidazole-4-carboxamide	443.15			
3600-24-6	Diethyltrisulfide	200.55		1108.22	1.568913
36011-19-5	Cytochalasin E	480.15			
36049-78-2	2-Iodooctane, (±)-		485.15	1325.12	1.48962
36069-05-3	Pseudojervine				
36069-45-1	Muldamine	483.15			
361-37-5	Methysergide	468.15			
3615-17-6	2-(Acetylamino)-2-deoxy-D-mannose	401.15			
3615-21-2	4,5-Dichloro-2-(trifluoromethyl)-1H-benzimidazole	486.65			
36150-73-9	Erythrophleine	388.15			
3618-96-0	N-Acetyl-L-phenylalanine, methyl ester	364.15			
362-29-8	Propiomazine				
363-03-1	2-Phenyl-2,5-cyclohexadiene-1,4-dione	387.15			
363-24-6	Prostaglandin E2	340.15			
363-72-4	Pentafluorobenzene	225.85	358.15	1514.25	1.39052
36309-01-0	Dimemorfan	365.15			
36357-38-7	1-(6-Methyl-3-pyridinyl)ethanone	290.75		1016.825	1.530225
3637-01-2	1-(3,4-Dimethylphenyl)ethanone	268.15	518.15	1009.014	1.541315
3637-61-4	Cyclopentanemethanol		436.15	933.22	1.45792
3638-35-5	Isopropylcyclopropane	160.15	331.15	693.625	1.38652
3638-64-0	Nitroethene	218.15	371.65	1221.214	1.42822
36383-15-0	sec-Butylbenzene, (±)-	197.65	446.45	862.12	1.49022
36386-49-9	α-Fenchol, (±)-	314.65	472.65	942.04	
3646-73-9	α-D-Galactopyranose	440.15			
3647-69-6	4-(2-Chloroethyl)morpholine, hydrochloride	458.15			
3648-20-2	Diundecyl phthalate	308.65	711.15		
3648-21-3	Diheptyl phthalate		633.15		
36566-80-0	2-Methyl-3-hexyne	156.45	367.15	726.32	1.41202
3657-07-6	Butyl trichloroacetate		477.15	1277.82	1.452525
3658-48-8	Bis(2-ethylhexyl) phosphonate			932.5	1.44202
3658-79-5	1,1-Diethoxypentane			829.22	1.402922
3658-80-8	Dimethyl trisulfide				
366-18-7	2,2'-Bipyridine	343.05	546.15		
366-29-0	N,N,N',N'-Tetramethyl-[1,1'-biphenyl]-4,4'-diamine	469.15			
366-70-1	Procarbazine hydrochloride	498.15			
36653-82-4	1-Hexadecanol	322.45	598.15	818.75	1.428379
367-11-3	o-Difluorobenzene	226.05	367.05	1159.918	1.445118
367-12-4	2-Fluorophenol	289.25	424.15	1120.25	1.51442
367-21-5	3-Chloro-4-fluoroaniline	318.15	500.15		
367-23-7	1,2,4-Trifluorobenzene		363.15	1264.25	1.41712
367-25-9	2,4-Difluoroaniline	265.65	443.15	1268.25	1.50632
367-57-7	1,1,1-Trifluoro-2,4-pentanedione		380.15		
367-64-6	Butyl trifluoroacetate		377.65	1026.822	1.35322
36701-01-6	2-Furanylmethyl pentanoate		501.15	1028.42	
36734-19-7	Iprodione	409.15			
3674-09-7	Methyl 2,3-dichloropropanoate			1328.22	
3674-13-3	Ethyl 2,3-dibromopropanoate		487.65	1796.62	1.50072
3675-68-1	1,1,2-Tribromobutane		492.15	2183.52	1.562617
3675-69-2	1,2,2-Tribromobutane		486.95	2169.22	1.5682
3676-85-5	4-Aminophthalimide				
36768-62-4	2,2,6,6-Tetramethyl-4-piperidinamine	290.15	461.65	912.25	1.47062
36791-04-5	Ribavirin	448.15			
368-16-1	L-3-Methylhistidine	523.15			
368-43-4	Benzenesulfonyl fluoride		476.65	1328.62	1.493218
368-47-8	Trifluorophenylsilane	255.15	374.65	1216.92	1.41102
368-77-4	3-(Trifluoromethyl)benzonitrile	287.65	462.15	1281.32	1.45082
3680-02-2	(Methylsulfonyl)ethene			1211.72	1.46362
3681-71-8	cis-3-Hexen-1-ol, acetate				
3682-35-7	2,4,6-Tris(2-pyridinyl)-1,3,5-triazine	483.15			
3682-91-5	2,6-Dihydroxy-2,6-dimethyl-4-heptanone				
36823-84-4	4-(Pentyloxy)benzoyl chloride			1087.25	1.54342
3683-19-0	cis-4-Methyl-2-hexene		359.15	695.225	1.40262
3683-22-5	trans-4-Methyl-2-hexene	147.45	361.15	692.525	1.40252
36847-51-5	Ethyl 2,4-dibromobutanoate			1698.72	1.49602
3689-24-5	Sulfotep			1196.25	1.475325
36894-69-6	Labetalol	437.15			
36895-62-2	Methenamine allyl iodide				
3690-04-8	Aminopropylon	454.15			
3695-77-0	α,α-Diphenylbenzenemethanethiol	378.95			
3696-28-4	Di-2-pyridinyl disulfide, N,N'-dioxide	478.15			
3697-24-3	5-Methylchrysene	390.65			
3698-94-0	Ethyl 1-octyl sulfide				
3699-01-2	1-Methyl-4-(phenylthio)benzene	288.85	590.15	1098.625	1.622525
370-14-9	4-[2-(Methylamino)propyl]phenol	434.15			
371-40-4	4-Fluoroaniline	271.25	455.15	1172.52	1.51952
371-41-5	4-Fluorophenol	321.15	458.65	1188.956	
371-62-0	2-Fluoroethanol	246.75	358.15	1104.02	1.364718
371-86-8	Mipafox	338.15			
371-90-4	1,1-Difluorocyclohexane		372.65		
3710-30-3	1,7-Octadiene		390.25	734.2	1.42452
3710-84-7	N-Ethyl-N-hydroxyethanamine	283.15	404.15	866.92	1.41952
37143-54-7	3-Methoxyisopropylamine		370.15		1.403125
372-09-8	Cyanoacetic acid	339.15			
372-18-9	m-Difluorobenzene	204.04	356.15	1157.22	1.43742
372-19-0	3-Fluoroaniline		461.15	1156.119	1.54362
372-20-3	3-Fluorophenol	287.15	451.15	1238.25	1.51402
372-31-6	Ethyl 4,4,4-trifluoroacetoacetate	234.05	405.15	1258.615	1.378315
372-38-3	1,3,5-Trifluorobenzene	267.65	350.15	1277.25	1.41402
372-46-3	Fluorocyclohexane	286.15	376.15	927.92	1.41462
372-47-4	3-Fluoropyridine		380.15	1130	1.47202
372-48-5	2-Fluoropyridine		398.15	1128.02	1.45742
372-64-5	Bis(trifluoromethyl) disulfide		307.75		
372-75-8	Citrulline	495.15			
3721-95-7	Cyclobutanecarboxylic acid	266.15	465.15	1059.92	1.44002
37248-47-8	Validamycin A				
3726-45-2	1,2,3,4-Tetramethylcyclohexane			821.92	1.45312
37273-91-9	Metaldehyde	519.15			
3728-43-6	Trimethyl(4-methylphenyl)silane	311.15	465.15	866.62	1.49002
373-02-4	Nickel(II) acetate				
373-14-8	1-Fluorohexane	170.15	361.15	799.52	1.37382
373-44-4	1,8-Octanediamine	324.85	498.75		
373-49-9	cis-9-Hexadecenoic acid	275.15			
373-52-4	Bromofluoromethane		296.15		
373-64-8	Difluoromethylborane				
373-74-0	Trifluoromethylsilane	200.15	243.15		
3731-51-9	2-Pyridinemethanamine		476.15	1052.525	1.543125
3731-52-0	3-Pyridinemethanamine	252.05	499.15	1064.2	1.5522
3731-53-1	4-Pyridinemethanamine	265.55	503.15	1072.2	1.549525
3734-48-3	Chlordene	428.15			
3735-90-8	Phencarbamide	321.65			
3739-38-6	3-Phenoxybenzoic acid	418.95			
374-07-2	1,1-Dichloro-1,2,2,2-tetrafluoroethane	216.55	276.15		1.3092
3740-52-1	2-Nitrobenzeneacetic acid	411.15			
3741-00-2	Pentylcyclopentane	190.15	453.15	791.22	1.43562
3741-38-6	1,2-Ethanediol, monosulfite	262.15	446.15	1440.22	1.44632
3742-34-5	Vinylcyclopentane	146.75	372.15	783.42	1.43602
3744-02-3	4-Methyl-4-penten-2-one	200.55	397.35	841.12	
3746-39-2	Dodecyl mercaptoacetate	274.65			
3748-13-8	1,3-Bis(1-methylethenyl)benzene		504.15	925	1.55702
375-01-9	2,2,3,3,4,4,4-Heptafluoro-1-butanol		368.15	1600.2	1.2942
375-03-1	Perfluoropropyl methyl ether		307.15	1409.22	
375-16-6	Heptafluorobutanoyl chloride		312.15	1552	1.2882
375-22-4	Heptafluorobutanoic acid	255.65	394.65	1651.2	1.29525
375-83-7	1H-Pentadecafluoroheptane		368.15	1725.25	1.269025
375-96-2	Perfluorononane		390.15	1800.12	
37517-30-9	Acebutolol, (±)-	394.15			
376-27-2	Methyl perfluorooctanoate		431.15	1684.2	1.30427
3760-11-0	2-Nonenoic acid				
3763-55-1	β,ψ-Caroten-3-ol, (3R)-	433.15			
3764-01-0	2,4,6-Trichloropyrimidine	295.65	485.65		1.57002
37674-63-8	2-Methyl-3-pentenoic acid		472.15	966.15	1.440225
3768-14-7	Adenosine 5'-methylenediphosphonate	477.15			
3768-55-6	1,1,1-Trimethyl-N-phenylsilanamine		479.15	940.2	
37680-73-2	2,2',4,5,5'-Pentachlorobiphenyl	350.05			
37688-96-3	1,14-Dibromotetradecane	323.55			
3769-23-1	4-Methyl-1-hexene	131.68	360.15	694.225	1.40002
377-41-3	1-Chloro-1,2,2,3,3,4,4-heptafluorocyclobutane	234.05	298.15	1602.15	
37746-78-4	Ethyl trans-4-bromo-2-butenoate			1402.16	1.49252
3775-90-4	N-tert-Butylaminoethyl methacrylate				
3779-29-1	Diethyl 1,1-cyclobutanedicarboxylate		496.15	1045.62	1.433026
3779-61-1	trans-3,7-Dimethyl-1,3,6-octatriene			799.2	
378-44-9	Betamethasone				
378-75-6	Methyl pentafluoropropanoate		332.65	1390.25	1.286925
3785-21-5	Butanilicaine	319.15			
37853-59-1	1,2-Bis(2,4,6-tribromophenoxy)ethane	495.15			
3788-32-7	Isobutylcyclopentane	157.95	421.15	776.925	1.42982
37893-02-0	Flubenzimine	392.15			
379-79-3	Ergotamine tartrate (2:1)				
3790-71-4	2-cis,6-trans-Farnesol			890.82	1.48772
37924-13-3	Perfluidone	419.15			
381-71-5	trans-1,2-Dichloro-1,2-difluoroethene	179.85	295.15	1494	
381-73-7	Difluoroacetic acid	272.15	406.15	1526.25	1.34702
3810-26-2	3-Phenyl-2-cyclopenten-1-one	250.15	507.35	971.12	1.54402
3810-74-0	Streptomycin sulfate				
38136-29-7	4-Methylpentanoyl chloride		416.15	972.52	
3817-11-6	4-(Butylnitrosoamino)-1-butanol				
382-21-8	Perfluoroisobutene	143.15	280.15	1592.2	
382-45-6	Androst-4-ene-3,11,17-trione	495.15			
3822-68-2	Trifluoromethyl difluoromethyl ether	116.15	238.15		
38237-74-0	1-(4-Aminophenyl)-1-pentanone	347.65			
3825-26-1	Ammonium perfluorooctanoate				
38260-54-7	Etrimfos	271.45		1195.2	
383-63-1	Ethyl trifluoroacetate		334.15	1194.2	1.3082
38300-67-3	1,2,4-Tribromobutane	256.15	488.15	2170.2	1.56082
38304-91-5	Minoxidil	521.15			
38380-07-3	2,2',3,3',4,4'-Hexachlorobiphenyl	424.85			