CASRN	Name	Tm	Tb	rho	RI
624-75-9	Iodoacetonitrile		458.15	2307.25	1.57442
624-76-0	2-Iodoethanol		428.15	2196.72	1.57132
624-78-2	Ethylmethylamine		307.35		
624-79-3	Ethyl isocyanide	207.15	352.15	740.22	1.36222
624-80-6	Ethylhydrazine		374.15		
624-83-9	Methyl isocyanate	228.15	311.45	958.82	1.36942
624-84-0	Hydrazinecarboxaldehyde	327.15			
624-89-5	Ethyl methyl sulfide	167.26	339.75	842.22	1.44042
624-90-8	Methyl azide			869.15	
624-91-9	Methyl nitrite	257.15	261.15	991.15	
624-92-0	Dimethyl disulfide	188.48	382.87	1062.52	1.52892
624-95-3	3,3-Dimethyl-1-butanol	213.15	416.15	844.15	1.432315
625-01-4	Ethyl chlorosulfonate		425.65	1350.225	1.4162
625-04-7	4-Amino-4-methyl-2-pentanone				
625-06-9	2,4-Dimethyl-2-pentanol	253.15	406.15	810.32	1.41722
625-08-1	3-Hydroxy-3-methylbutanoic acid	241.15		938.42	1.50812
625-22-9	Dibutyl sulfate				
625-23-0	2-Methyl-2-hexanol		415.15	811.92	1.41752
625-25-2	2-Methyl-2-heptanol	222.75	446.15	814.22	1.42502
625-27-4	2-Methyl-2-pentene	138.15	340.45	686.32	1.40042
625-28-5	3-Methylbutanenitrile	172.35	402.15	791.42	1.39272
625-31-0	4-Penten-2-ol		389.15	836.72	1.42252
625-36-5	3-Chloropropanoyl chloride		417.15	1330.713	1.45492
625-38-7	3-Butenoic acid	238.15	442.15	1009.12	1.42392
625-44-5	Isobutyl methyl ether		331.75	731.12	
625-45-6	Methoxyacetic acid		477.15	1176.82	1.41682
625-48-9	2-Nitroethanol	193.15	468.15	1270.15	1.443819
625-50-3	N-Ethylacetamide		478.15	942.4	1.43382
625-52-5	N-Ethylurea	367.15		1213.018	
625-54-7	Ethyl isopropyl ether		327.15	720.25	1.369825
625-55-8	Isopropyl formate		341.15	872.82	1.36782
625-56-9	Chloromethyl acetate		389.15	1194.2	1.4092
625-58-1	Ethyl nitrate	178.64	362.15	1108.42	1.38522
625-60-5	S-Ethyl thioacetate		387.15	979.22	1.458321
625-65-0	2,4-Dimethyl-2-pentene	145.55	356.45	695.42	1.40402
625-68-3	3-Chlorobutanoic acid	289.15		1189.82	1.42212
625-69-4	2,4-Pentanediol		491.15	963.52	1.43492
625-71-8	3-Hydroxybutanoic acid, (±)-	322.15			1.44242
625-75-2	Nitroacetic acid				
625-76-3	Dinitromethane	258.15	442.15		
625-77-4	N-Acetylacetamide	352.15	496.65		
625-80-9	Diisopropyl sulfide	195.12	393.15	814.22	1.44382
625-82-1	2,4-Dimethylpyrrole		438.15	923.62	1.50482
625-84-3	2,5-Dimethylpyrrole	280.83	440.58	935.32	1.50362
625-86-5	2,5-Dimethylfuran	210.35	369.15	888.32	1.43632
625-92-3	3,5-Dibromopyridine	385.15	495.15		
625-95-6	1-Iodo-3-methylbenzene	245.95	491.15	1705.2	1.60532
625-96-7	3-Methylcyclohexanone, (±)-	199.25	442.45	913.62	1.44562
625-98-9	1-Chloro-3-fluorobenzene		401.15	1221.25	1.4911
625-99-0	1-Chloro-3-iodobenzene		503.15	1925.52	
62571-86-2	Captopril	378.15			
6258-66-8	4-Chlorobenzenemethanethiol	292.65		1202.25	1.58932
626-00-6	m-Diiodobenzene	307.35	558.15	2472.5	
626-01-7	3-Iodoaniline	306.15			1.68112
626-02-8	3-Iodophenol	391.15			
626-04-0	1,3-Benzenedithiol	300.15	518.15		
626-15-3	1,3-Bis(bromomethyl)benzene	350.15		1959.25	
626-16-4	1,3-Bis(chloromethyl)benzene	307.15	524.65	1302.2	
626-17-5	m-Dicyanobenzene	435.15		992.4	
626-18-6	1,3-Benzenedimethanol	330.15		1161.018	
626-19-7	1,3-Benzenedicarboxaldehyde	362.15	519.15		
626-20-0	1-Vinyl-3-methoxybenzene			991.92	1.558623
626-23-3	Di-sec-butylamine		408.15	753.42	1.41622
626-26-6	Di-sec-butyl sulfide		440.15	834.82	1.45062
626-27-7	Heptanoic anhydride	260.75	542.65	932.12	1.433515
626-29-9	Tetradecanoic anhydride	326.55		850.27	1.43357
626-33-5	2-Methyl-4-heptanone		428.15	813.22	
626-35-7	Ethyl nitroacetate			1195.32	1.42502
626-36-8	Ethyl (aminocarbonyl)carbamate	469.65			
626-39-1	1,3,5-Tribromobenzene	394.95	546.15		
626-40-4	3,5-Dibromoaniline	330.15			
626-43-7	3,5-Dichloroaniline	325.15	534.15		
626-48-2	6-Methyl-2,4(1H,3H)-pyrimidinedione				
626-51-7	3-Methylpentanedioic acid	360.15			
626-53-9	2,4,6-Heptanetrione	322.15		1059.94	1.49302
626-55-1	3-Bromopyridine	245.85	445.15	1645	1.56942
626-58-4	4-Methylpiperidine		399.15	867.425	1.44582
626-60-8	3-Chloropyridine		424.15		1.53042
626-61-9	4-Chloropyridine	229.65	424.15	1200.025	
626-62-0	Iodocyclohexane		451.15	1624.42	1.54772
626-64-2	4-Pyridinol	421.15			
626-67-5	1-Methylpiperidine	170.45	375.35	815.92	1.43552
626-71-1	2-Aminoadipic acid	480.15			
626-77-7	Propyl hexanoate	199.15	458.15	867.22	1.41702
626-82-4	Butyl hexanoate	223.15	477.15	865.32	1.41522
626-85-7	Dibutyl sulfite		503.15	995.72	1.43102
626-86-8	Ethyl hydrogen hexanedioate	302.15	558.15	979.62	1.43112
626-87-9	1,4-Dibromopentane	238.75		1622.22	1.50862
626-88-0	1-Bromo-4-methylpentane		418.15	1168.32	1.449
626-89-1	4-Methyl-1-pentanol		424.15	813.12	1.413425
626-94-8	5-Hexen-2-ol		412.15	842.16	
626-95-9	1,4-Pentanediol		475.15	988.32	1.445223
626-96-0	4-Oxopentanal	252.15		1013.421	1.425722
626-97-1	Pentanamide	377.15	498.15	873.511	1.418311
6261-22-9	2-Pentyn-1-ol	223.45	423.15	909.2	1.451817
62637-91-6	3',3'',5',5''-Tetrabromophenolphthalein ethyl ester, potassium salt	483.15			
6267-24-9	Tris(ethylthio)methane			1053.2	1.541015
627-00-9	4-Chlorobutanoic acid	289.15		1223.62	1.46422
627-03-2	Ethoxyacetic acid		479.65	1102.12	1.41942
627-04-3	(Ethylthio)acetic acid	264.65		1149.72	
627-05-4	1-Nitrobutane		425.95	970.25	1.43032
627-06-5	Propylurea	380.95			
627-08-7	1-(1-Methylethoxy)propane		355.15	737.02	1.37621
627-09-8	Propargyl acetate		397.15	998.22	1.41872
627-11-2	2-Chloroethyl chloroformate		428.15	1384.72	1.44832
627-12-3	Propyl carbamate	333.15	469.15		
627-13-4	Propyl nitrate		383.15	1053.82	1.39732
627-18-9	3-Bromo-1-propanol			1537.42	1.483425
627-19-0	1-Pentyne	166.95	313.05	690.12	1.38522
627-20-3	cis-2-Pentene	121.8	310.05	655.62	1.38302
627-21-4	2-Pentyne	163.85	329.15	705.825	1.40392
627-22-5	1-Chloro-1,3-butadiene		340.15	960.62	1.47122
627-26-9	trans-2-Butenenitrile	221.65	393.15	823.92	1.42252
627-27-0	3-Buten-1-ol		385.15	842.42	1.42242
627-30-5	3-Chloro-1-propanol		422.15	1130.92	1.44592
627-31-6	1,3-Diiodopropane	253.15	495.15	2561.225	1.639125
627-32-7	3-Iodo-1-propanol		499.15	1997.62	1.55852
627-35-0	Methylpropylamine		336.15	720.417	
627-37-2	N-Methyl-2-propen-1-amine		337.15		1.40652
627-39-4	Propanal oxime	313.15	405.15	925.82	1.42872
627-40-7	3-Methoxy-1-propene		319.15	771.1	1.37782
627-41-8	3-Methoxy-1-propyne		336.15	831.2	1.50352
627-42-9	1-Chloro-2-methoxyethane		352.15	1034.52	1.41112
627-44-1	Diethyl mercury		432.15	2432	
627-45-2	N-Ethylformamide		471.15	955.22	1.43202
627-48-5	Ethyl cyanate			892	1.378825
627-49-6	Diethylphosphine		358.15	786.2	
627-51-0	Divinyl sulfide	293.15	357.15	917.415	
627-53-2	Diethyl selenide	328.15	381.15	1230.02	1.47682
627-54-3	Diethyl telluride		410.65	1599.15	1.518215
627-58-7	2,5-Dimethyl-1,5-hexadiene	197.55	387.15	743.2	1.4399521
627-59-8	5-Methyl-2-hexanol		424.15	814.2	1.41802
627-63-4	trans-2-Butenedioyl dichloride		432.15	1408.2	1.500418
627-70-3	Acetone (1-methylethylidene)hydrazone	260.65	406.15	839.02	1.45352
627-83-8	1,2-Ethanediol, distearate	348.45		858.178	
627-84-9	1,2-Ethanediol, ditetradecanoate	334.85		860.08	
627-90-7	Ethyl undecanoate	257.15		863.32	1.42852
627-91-8	Methyl hexanedioate	282.15		1062.32	1.42832
627-93-0	Dimethyl 1,6-hexanedioate	283.45	504.15	1060.02	1.42832
627-97-4	2-Methyl-2-heptene		395.15	720.025	1.41702
627-98-5	5-Methyl-1-hexanol		443.15	819.224	1.41752
6270-16-2	3-Nitro-2-butanol			1126.02	1.44142
6270-34-4	Isopropyl 2-furancarboxylate		471.65	1065.524	1.468224
6272-38-4	2-(Phenylmethoxy)phenol			1154.22	1.590618
628-02-4	Hexanamide	374.15	531.15	999.2	1.420011
628-04-6	Ethyl isopentyl ether		385.15	768.821	
628-05-7	1-Nitropentane		445.65	952.52	1.41752
628-11-5	3-Chloropropyl chloroformate		450.15	1292.625	1.44562
628-13-7	Pyridine hydrochloride	417.15	495.15		
628-16-0	1,5-Hexadiyne	267.65	361.15	804.92	1.438023
628-17-1	1-Iodopentane	187.55	429.15	1516.12	1.49592
628-20-6	4-Chlorobutanenitrile		448.15	1093.415	1.44132
628-21-7	1,4-Diiodobutane	279.05		2349.425	1.618425
628-28-4	Butyl methyl ether	157.45	343.25	739.225	1.37362
628-29-5	Butyl methyl sulfide	175.34	396.55	842.62	1.44772
628-30-8	Propyl isothiocyanate		426.15	978.116	1.508516
628-32-0	Ethyl propyl ether	145.65	336.15	738.62	1.36952
628-34-2	2-Chloroethyl ethyl ether		371.15	989.52	1.41132
628-36-4	1,2-Hydrazinedicarboxaldehyde	434.15			
628-37-5	Diethylperoxide	203.15	319.15	824.019	1.371517
628-41-1	1,4-Cyclohexadiene	224.15	362.65	847.12	1.47252
628-44-4	2-Methyl-2-octanol		451.15	821.02	1.42802
628-55-7	Diisobutyl ether		395.85	761.15	
628-61-5	2-Chlorooctane		445.15	865.817	1.427321
628-63-7	Pentyl acetate	202.25	422.55	875.62	1.40232
628-66-0	1,3-Propanediol diacetate		482.65	1070.14	1.4192
628-67-1	1,4-Butanediol diacetate	285.15	506.15	1047.915	1.425115
628-68-2	Diethylene glycol diacetate	291.15	473.15	1106.815	1.43482
628-71-7	1-Heptyne	192.25	372.95	732.82	1.40872
628-73-9	Hexanenitrile	192.85	436.65	805.12	1.40682
628-76-2	1,5-Dichloropentane	200.35	456.05	1095.625	1.454525
628-77-3	1,5-Diiodopentane	282.15		2169.225	1.598725
628-80-8	Methyl pentyl ether		372.15	759.22	1.386222
628-81-9	Butyl ethyl ether	149.15	362.15	749.52	1.38182
628-83-1	Butyl thiocyanate		459.15	956.315	1.43602
628-87-5	Iminodiacetic acid, dinitrile	351.15			
628-89-7	2-(2-Chloroethoxy)ethanol		467.15	1182.5	1.45292
628-92-2	Cycloheptene	217.85	388.15	822.82	1.45522
628-94-4	Hexanediamide	499.05			
628-96-6	1,2-Ethanediol, dinitrate	250.65	472.15	1491.82	
628-97-7	Ethyl palmitate	297.35	607.15	857.725	1.434734
6283-25-6	2-Chloro-5-nitroaniline	393.95			
6284-40-8	1-Deoxy-1-(methylamino)-D-glucitol	401.65			
6284-84-0	cis-2,5-Dimethylpiperazine	387.15	437.15		1.47202
6285-05-8	1-(4-Chlorophenyl)-1-propanone	310.45			
6287-38-3	3,4-Dichlorobenzaldehyde	317.15	520.65		
629-01-6	Octanamide	378.15	512.15	845.011	
629-03-8	1,6-Dibromohexane	271.95	518.65	1602.525	1.505425
629-04-9	1-Bromoheptane	217.05	452.15	1140.02	1.45022
629-05-0	1-Octyne	193.75	399.35	746.12	1.41592
629-06-1	1-Chloroheptane	203.75	432.15	876.22	1.42642
629-08-3	Heptanenitrile	209.35	456.15	810.62	1.41043
629-09-4	1,6-Diiodohexane	282.55		2034.225	1.583725
629-11-8	1,6-Hexanediol	314.65	481.15	1079.25	1.457925
629-14-1	1,2-Diethoxyethane	199.15	393.75	835.125	1.389825
629-15-2	1,2-Ethanediol, diformate		447.15	1193	1.358
629-17-4	1,2-Ethanediol, dithiocyanate	363.15		1420	
629-19-6	Dipropyl disulfide	187.75	469.15	959.92	1.49812
629-20-9	1,3,5,7-Cyclooctatetraene	268.45	413.15	920.62	1.53812
629-27-6	1-Iodooctane	227.45	499.15	1329.82	1.48852
629-30-1	1,7-Heptanediol	295.05	535.15	956.925	1.452025
629-31-2	Heptanal oxime	330.65	468.15	858.355	1.42102
629-33-4	Hexyl formate	210.55	427.15	881.32	1.40712
629-35-6	Dibutylmercury		496.15	1777.92	1.50572
629-36-7	Bis(3-chloropropyl) ether		478.15	1136.2	1.41582
629-37-8	1-Nitrooctane	288.15	481.65	934.62	1.43222
629-39-0	Octyl nitrate			975	
629-40-3	Octanedinitrile	269.15		954.25	1.44362
629-41-4	1,8-Octanediol	332.75			
629-45-8	Dibutyl disulfide		509.15	938.2	1.49232
629-46-9	Octyl nitrite		447.65	862.17	1.41272
629-50-5	Tridecane	267.8	508.55	756.42	1.42562
629-54-9	Hexadecanamide	378.15		1000.02	
629-59-4	Tetradecane	279.02	526.65	759.62	1.42902
629-60-7	Tridecanenitrile	283.15	575.15	825.72	1.43782
629-62-9	Pentadecane	283.1	543.75	768.52	1.43152
629-63-0	Tetradecanenitrile	292.25		828.119	1.439223
629-64-1	Diheptyl ether		531.15	800.82	1.42752
629-65-2	Diheptyl sulfide	343.15	568.15	841.62	1.46062
629-66-3	2-Nonadecanone	328.25		810.856	
629-70-9	Hexadecyl acetate	254.65		857.425	1.44382
629-72-1	1-Bromopentadecane	291.75	595.15	1067.52	1.46112
629-73-2	1-Hexadecene	277.35	558.15	781.12	1.44122
629-74-3	1-Hexadecyne	288.15	557.15	796.52	1.44402
629-76-5	1-Pentadecanol	316.95	591.15	834.725	
629-78-7	Heptadecane	295.12	576.15	778.02	1.43692
629-79-8	Hexadecanenitrile	304.55	606.15	830.32	1.44502
629-80-1	Hexadecanal	309.15			
629-82-3	Dioctyl ether	265.45	562.15	806.32	1.43272
629-90-3	Heptadecanal	309.15			
629-92-5	Nonadecane	304.65	603.15	785.52	1.44092
629-93-6	1-Iodooctadecane	307.15	652.15	1099.42	1.48102
629-94-7	Heneicosane	313.55	632.15	791.92	1.44412
629-96-9	1-Eicosanol	337.05	629.15	840.52	1.43502
629-97-0	Docosane	316.95	642.15	794.42	1.44552
629-99-2	Pentacosane	326.45	675.05	801.22	1.44912
6290-05-7	Diethyl iminodiacetate				
6290-49-9	Methyl methoxyacetate		404.15	1051.12	1.39622
6294-31-1	Dihexyl sulfide		503.15	841.12	1.45862
6294-34-4	Bis(2-chloroethyl) 2-chloroethylphosphonate				1.48825
6294-89-9	Methyl hydrazinecarboxylate	346.15			
63-05-8	Androst-4-ene-3,17-dione	416.15			
63-12-7	Benzquinamide	404.15			
63-25-2	Carbaryl	415.85		1228.25	
63-37-6	5'-Cytidylic acid				
63-68-3	L-Methionine				
63-74-1	4-Aminobenzenesulfonamide	435.35		1082.5	
63-75-2	Arecoline		482.15	1048.52	
63-91-2	L-Phenylalanine				
63-92-3	Phenoxybenzamine hydrochloride	412.15			
63-98-9	(Phenylacetyl)urea	488.15			
630-01-3	Hexacosane	329.24	688.15	778.36	1.43576
630-02-4	Octacosane	334.45	705.15	806.72	1.43307
630-03-5	Nonacosane	336.85	716.15	808.32	1.45292
630-04-6	Hentriacontane	341.15	731.15	781.68	1.42789
630-05-7	Tritriacontane	344.35			
630-06-8	Hexatriacontane	348.96	777.15	780.38	1.43978
630-07-9	Pentatriacontane	347.55	762.15	815.72	1.45682
630-08-0	Carbon monoxide	68.05	81.64		
630-10-4	Selenourea				
630-17-1	1-Bromo-2,2-dimethylpropane		381.15	1199.72	1.43702
630-18-2	2,2-Dimethylpropanenitrile	292.12	378.35	758.625	1.37742
630-19-3	2,2-Dimethylpropanal	274.15	347.15	792.317	1.37912
630-20-6	1,1,1,2-Tetrachloroethane	202.95	403.35	1540.62	1.48212
630-60-4	Ouabain	473.15			
630-72-8	Trinitroacetonitrile	318.15			
630-76-2	Tetraphenylmethane	554.55	704.15		
631-01-6	Quillaic acid	567.15			
631-36-7	Tetraethylsilane		426.55	765.82	1.42682
631-40-3	Tetrapropylammonium iodide			1313.825	
631-57-2	Pyruvonitrile		365.45	974.52	1.37642
631-64-1	Dibromoacetic acid	322.15			
631-65-2	2-Chloro-3-methylbutane		365.15	878.2	
631-67-4	N,N-Dimethylthioacetamide	347.65			
6314-28-9	Benzo[b]thiophene-2-carboxylic acid	513.65			
6315-52-2	1,2-Ethanediol, bis(4-methylbenzenesulfonate)	399.65			
6315-89-5	3,4-Dimethoxyaniline	360.65			
6317-18-6	Methylene thiocyanate	375.15			
632-05-3	1,2,3-Tribromobutane	254.15	492.15	2190.72	1.56802
632-14-4	Trimethylurea	347.15	505.65	1190.02	
632-15-5	3,4-Dimethylthiophene		418.15	993.25	1.52062
632-16-6	2,3-Dimethylthiophene	224.15	414.15	1002.12	1.51922
632-22-4	Tetramethylurea	270.48	450.25	968.72	1.449623
632-25-7	2-Sulfobenzoic acid	414.15			
632-32-6	Ergost-8(14)-en-3-ol, (3β,5α)	404.15			
632-46-2	2,6-Dimethylbenzoic acid	389.15	550.15		
632-50-8	1,1,2,2-Tetraphenylethane	484.15	633.15		
632-51-9	1,1,2,2-Tetraphenylethene	498.05	693.15	1155	
632-79-1	4,5,6,7-Tetrabromo-1,3-isobenzofurandione	553.15			
632-80-4	4,5,6,7-Tetraiodo-1,3-isobenzofurandione	600.65			
632-93-9	Diethyl 1,4-dihydro-2,4,6-trimethyl-3,5-pyridinedicarboxylate	404.15			
632-99-5	Magenta I				
6320-03-2	2-Chlorobenzenethiol		478.65	1275.21	
6325-93-5	4-Nitrobenzenesulfonamide	180.45			
63284-71-9	Nuarimol	399.15			
633-03-4	Brilliant Green				
6334-18-5	2,3-Dichlorobenzaldehyde	339.15			
634-03-7	Phendimetrazine				
634-19-5	1,2,3,4-Tetrahydro-9H-fluoren-9-one	354.65			
634-36-6	1,2,3-Trimethoxybenzene	321.65	508.15	1100.945	
634-66-2	1,2,3,4-Tetrachlorobenzene	319.85	527.15		
634-67-3	2,3,4-Trichloroaniline	346.15	565.15		
634-74-2	D-Rhamnose				
634-90-2	1,2,3,5-Tetrachlorobenzene	323.85	518.15		
634-93-5	2,4,6-Trichloroaniline	351.65	535.15		
634-95-7	N,N-Diethylurea	348.45			
634-97-9	1H-Pyrrole-2-carboxylic acid	464.15			
63451-35-4	Hydroxynaphthol blue, trisodium salt				
6346-09-4	4,4-Diethoxy-1-butanamine		469.15	933.25	1.42752
635-10-9	Tetramethyl 1,2,4,5-benzenetetracarboxylate	417.95			
635-21-2	2-Amino-5-chlorobenzoic acid	484.15			
635-22-3	4-Chloro-3-nitroaniline	376.15			
635-46-1	1,2,3,4-Tetrahydroquinoline	289.91	523.65	1058.82	1.606219
635-65-4	Bilirubin				
635-67-6	1,2-Benzenediol, diacetate	337.65			
635-78-9	7-Hydroxy-3H-phenoxazin-3-one				
635-90-5	1-Phenyl-1H-pyrrole	334.15	507.15		
635-93-8	5-Chloro-2-hydroxybenzaldehyde	373.45			
6351-10-6	2,3-Dihydro-1H-inden-1-ol	328.15	493.15		
6358-53-8	Citrus Red 2	429.15			
6358-85-6	C.I. Pigment Yellow 12	590.15			
636-04-4	N-Phenylbenzenecarbothioamide	375.15			
636-09-9	Diethyl terephthalate	316.35	576.15	1098.945	
636-21-5	2-Methylaniline, hydrochloride	488.15			
636-28-2	1,2,4,5-Tetrabromobenzene	453.15		3072.2	
636-30-6	2,4,5-Trichloroaniline	369.65	543.15		
636-41-9	2-Methylpyrrole	237.55	421.15	944.615	1.503516
636-46-4	4-Hydroxy-1,3-benzenedicarboxylic acid	583.15			
636-53-3	Diethyl isophthalate	284.65	571.15	1123.917	1.50818
636-60-2	Methylsuccinic acid	387.15		1420	1.4303
636-72-6	2-Thiophenemethanol		480.15	1205.316	1.52802
636-73-7	3-Pyridinesulfonic acid			1713.25	
636-82-8	1-Cyclohexene-1-carboxylic acid	311.15	514.15	1109.2	1.49022
636-97-5	4-Nitrobenzoic acid, hydrazide	488.65			
636-98-6	1-Iodo-4-nitrobenzene	446.15	561.15	1809.0155	
6361-21-3	2-Chloro-5-nitrobenzaldehyde	354.45			
6362-80-7	4-Methyl-2,4-diphenyl-1-pentene			992.5	
637-03-6	Oxophenylarsine	418.15			
637-07-0	Clofibrate				
637-27-4	Phenyl propanoate	292.15	480.15	1043.625	1.49802
637-39-8	2-[Bis(2-hydroxyethyl)amino]ethanol hydrochloride	452.65			
637-44-5	3-Phenyl-2-propynoic acid	410.15		1282	
637-53-6	N-Phenylthioacetamide	348.65			
637-55-8	Phenyl stearate	325.15			
637-59-2	(3-Bromopropyl)benzene		492.65	1310.625	1.544025
637-64-9	Tetrahydrofurfuryl acetate		466.15	1062.42	1.435025
637-65-0	Tetrahydrofurfuryl propanoate		478.65	1044.2	
637-69-4	1-Vinyl-4-methoxybenzene	275.15	481.15	1000.113	1.564213
637-78-5	Isopropyl propanoate		383.15	866.02	1.38722
637-87-6	1-Chloro-4-iodobenzene	326.72	499.15	1886.27	
637-88-7	1,4-Cyclohexanedione	351.55		1086.191	
637-89-8	4-Mercaptophenol	302.65		1128.525	1.510125
637-92-3	tert-Butyl ethyl ether	179.15	345.85	736.25	1.37562
6378-11-6	Ethyl chlorosulfinate			1283.72	1.455025
6378-65-0	Hexyl hexanoate	217.95	514.15	865.18	1.426415
6379-72-2	trans-1,2-Dimethoxy-4-(1-propenyl)benzene	291.15	543.65	1052.12	1.56162
638-00-6	2,4-Dimethylthiophene		410.15	993.82	1.51042
638-02-8	2,5-Dimethylthiophene	210.63	412.15	985.02	1.51292
638-04-0	cis-1,3-Dimethylcyclohexane	197.64	397.55	766.02	1.42292
638-07-3	Ethyl 4-chloroacetoacetate	265.15		1218.25	1.45202
638-08-4	Stearic acid anhydride	345.15		836.582	1.43628
638-10-8	Ethyl 3-methyl-2-butenoate		426.65	919.921	1.43452
638-11-9	Isopropyl butanoate		402.15	858.82	1.39362
638-16-4	1,3,5-Triazine-2,4,6(1H,3H,5H)-trithione	573.15			
638-21-1	Phenylphosphine		433.65	1001.15	1.57962
638-23-3	S-(Carboxymethyl)-L-cysteine	479.15			
638-25-5	Pentyl octanoate	238.45	518.15	861.32	1.426225
638-28-8	2-Chlorohexane		397.15	869.421	1.414222
638-29-9	Pentanoyl chloride	163.15	397.15	1015.515	1.42002
638-37-9	Butanedial			1065.2	1.426218
638-38-0	Manganese(II) acetate	483.15			
638-41-5	Pentyl chloroformate				1.418118
638-45-9	1-Iodohexane	199.05	455.15	1430.525	1.49282
638-46-0	Butyl ethyl sulfide	178.05	417.35	837.62	1.44921
638-49-3	Pentyl formate	200.15	399.15	885.32	1.39922
638-53-9	Tridecanoic acid	315		845.88	1.42866
638-58-4	Tetradecanamide	377.15			
638-59-5	Tetradecyl acetate				
638-65-3	Octadecanenitrile	315.15	635.15	832.52	1.438945
638-66-4	Stearaldehyde		534.15		
638-67-5	Tricosane	320.55	654.15	778.548	1.44682
638-68-6	Triacontane	339.05	724.15	809.72	1.43527
638-95-9	Urs-12-en-3-ol, (3β)	459.15			
6380-23-0	1,2-Dimethoxy-4-vinylbenzene				1.57112
6380-34-3	Phenylarsonous diiodide	288.15		1626.415	
6381-92-6	Ethylenediaminetetraacetic acid, disodium salt, dihydrate				
6382-13-4	Pentyl stearate	302.35			1.43425
639-58-7	Chlorotriphenylstannane	376.65			
639-81-6	Ergotaminine				
639-99-6	1,3-Elemadien-11-ol	325.65		934.518	1.498018
63990-84-1	2-Benzoylmethyl-6(2-hydroxy-2-phenylethyl)-1-methylpiperidine, hydrochloride	456.65			
64-02-8	Tetrasodium EDTA	573.15			
64-04-0	Benzeneethanamine	273.15	477.15	964.025	1.529025
64-10-8	Phenylurea	420.55	511.15	1302.25	
64-17-5	Ethanol	159.01	351.39	789.32	1.36112
64-18-6	Formic acid	281.45	374.15	1220.2	1.37142
64-19-7	Acetic acid	290.15	391.05	1044.625	1.37202