CASRN	Name	Tm	Tb	rho	RI
57-88-5	Cholesterol	421.35	732.15	1067.2	
57-91-0	Estra-1,3,5(10)-triene-3,17-diol, (17α)	494.65			
57-92-1	Streptomycin				
57-94-3	Tubocurarine dichloride				
57-96-5	Sulfinpyrazone	410.15			
57-97-6	7,12-Dimethylbenz[a]anthracene	396.15			
570-22-9	1H-Imidazole-4,5-dicarboxylic acid			1749.25	
570-24-1	2-Methyl-6-nitroaniline	369.15		1190.01	
5703-26-4	4-Methoxybenzeneacetaldehyde		528.65	1096.2	1.53592
57041-67-5	1,2,2,2-Tetrafluoroethyl difluoromethyl ether		296.15	1454.023	
571-58-4	1,4-Dimethylnaphthalene	280.75	537.15	1016.62	1.61272
571-60-8	1,4-Naphthalenediol	465.15			
571-61-9	1,5-Dimethylnaphthalene	354.65	540.15		
57129-69-8	Dihydro-5-methyl-2(3H)-furanone, (±)-	242.15	477.15	1055.12	1.43282
572-59-8	Epiquinidine	386.15			
572-93-0	2,7-Dihydroxy-9,10-anthracenedione	626.95			
5728-52-9	[1,1'-Biphenyl]-4-acetic acid	433.65			
573-17-1	9-Bromophenanthrene	337.65		1409.31	
573-20-6	2-Methyl-1,4-naphthalenediol diacetate	386.15			
573-26-2	N-Methyl-N-(2-methylphenyl)acetamide	328.65	533.15		
573-56-8	2,6-Dinitrophenol	335.55			
573-58-0	Congo Red	633.15			
573-97-7	1-Bromo-2-naphthol	357.15	403.15		
573-98-8	1,2-Dimethylnaphthalene	270.15	540.15	1017.92	1.61662
5736-88-9	4-Butoxybenzaldehyde				
57377-32-9	Hymenoxone				
57392-55-9	Isopentyl trichloroacetate		490.15	1231.42	1.45212
574-09-4	2-Ethoxy-1,2-diphenylethanone	335.15		1101.617	1.572717
574-12-9	3-Phenyl-4H-1-benzopyran-4-one	421.15			
574-66-3	Benzophenone, oxime	417.15			
574-84-5	7,8-Dihydroxy-6-methoxy-2H-1-benzopyran-2-one	504.15			
574-93-6	29H,31H-Phthalocyanine				
574-98-1	N-(2-Bromoethyl)phthalimide	354.65			
5743-27-1	Calcium ascorbate				
5743-97-5	Tetradecahydrophenanthrene	270.15	557.15	944.2	1.50112
5746-57-6	L-Glycerol 1-phosphate				
575-36-0	N-1-Naphthalenylacetamide	433.15			
575-37-1	1,7-Dimethylnaphthalene	259.25	536.15	1011.52	1.60832
575-38-2	1,7-Naphthalenediol	453.65			
575-41-7	1,3-Dimethylnaphthalene	267.15	538.15	1014.42	1.61402
575-43-9	1,6-Dimethylnaphthalene	256.95	536.15	1002.12	1.61662
575-44-0	1,6-Naphthalenediol	411.15			
575-74-6	N-Butyl-4-chloro-2-hydroxybenzamide	364.65			
57526-28-0	2-Methylbutanoyl chloride, (±)-		389.15	991.72	1.41702
5756-43-4	Ethyl hexyl ether		415.15	772.22	1.40082
57576-09-7	5-Methyl-2-(1-methylvinyl)cyclohexanol acetate, [1R-(1α,2β,5α)]	358.15		925.25	1.45662
576-22-7	2-Bromo-1,3-dimethylbenzene		477.15		1.55522
576-24-9	2,3-Dichlorophenol	329.95			
576-26-1	2,6-Xylenol	318.55	474.18		
576-55-6	2,3,4,5-Tetrabromo-6-methylphenol	481.15			
576-83-0	2-Bromo-1,3,5-trimethylbenzene	272.15	498.15	1319.11	1.55102
5763-61-1	3,4-Dimethoxybenzenemethanamine			1143.25	
5765-44-6	5-Methylisoxazole		396.15	1023.2	1.43862
57653-85-7	1,2,3,6,7,8-Hexachlorodibenzo-p-dioxin	558.15			
577-11-7	Bis(2-ethylhexyl) sodium sulfosuccinate				
577-16-2	1-(2-Methylphenyl)ethanone		485.15	1026.2	1.52762
577-19-5	1-Bromo-2-nitrobenzene	311.65	526.15	1624.58	
577-27-5	Ledol	378.15	565.15	907.81	1.466711
577-33-3	1,2,10-Anthracenetriol	481.15			
577-37-7	Aphylline	325.65			
577-55-9	1,2-Diisopropylbenzene	216.15	477.85	870.12	1.49602
577-56-0	2-Acetylbenzoic acid	387.65			
577-59-3	1-(2-Nitrophenyl)ethanone	301.65		1237.025	1.54682
577-71-9	3,4-Dinitrophenol	407.55		1672.25	
577-85-5	3-Hydroxy-2-phenyl-4H-1-benzopyran-4-one	442.65			
577-91-3	4-Hydroxy-3,5-diiodo-α-phenylbenzenepropanoic acid	437.15			
5779-94-2	2,5-Dimethylbenzaldehyde		493.15	950.02	
5779-95-3	3,5-Dimethylbenzaldehyde	282.15	494.15		
578-54-1	2-Ethylaniline	226.15	486.15	983.22	1.558422
578-57-4	2-Bromoanisole	274.45	489.15	1501.82	1.57272
578-58-5	2-Methylanisole	239.05	446.15	985.25	1.51612
578-66-5	8-Quinolinamine	337.15			
578-67-6	5-Quinolinol	497.15			
578-68-7	4-Quinolinamine	427.95			
578-76-7	2-Amino-1,7-dihydro-7-methyl-6H-purin-6-one	643.15			
578-94-9	10-Chloro-5,10-dihydrophenarsazine	468.15		1650	
578-95-0	9(10H)-Acridinone	573.15			
5781-53-3	Methyl chlorooxoacetate		392.15	1331.62	1.41892
57837-19-1	Metalaxyl	346.15			
5786-21-0	Clozapine	456.15			
5786-96-9	Brucine hydrochloride				
5787-31-5	2-Bromobutane, (±)-	160.55	364.15	1258.52	1.43662
579-04-4	2,6-Dideoxy-3-O-methyl-ribo-hexose	374.15			
579-07-7	1-Phenyl-1,2-propanedione	293.15	495.15	1100.62	1.5371
579-10-2	N-Methyl-N-phenylacetamide	376.15	529.15	1003.6105	1.576
579-21-5	Lobelanine	372.15			
579-44-2	Benzoin	410.15	616.15	1310.2	
579-66-8	2,6-Diethylaniline	274.65	524.15	906.25	1.54522
579-75-9	2-Methoxybenzoic acid	374.05	473.15		
579-92-0	Diphenylamine-2,2'-dicarboxylic acid				
579-94-2	2-Isopropyl-5-methylcyclohexyl ethoxyacetate, (1α,2β,5α)			954.52	
5794-03-6	Camphene, (+)	325.15	434.15	895.05	1.457025
5794-04-7	Camphene, (-)	325.15	431.15	844.65	1.456454
5794-13-8	L-Asparagine, monohydrate	507.15		1543.15	
5794-24-1	D-Asparagine, monohydrate	488.15		1523.15	
5794-88-7	2-Amino-5-bromobenzoic acid	492.65			
57968-71-5	Diethyl DL-tartrate	291.85	554.15	1204.62	1.44382
5798-75-4	Ethyl 4-bromobenzoate	255.15	536.15	1433.217	1.543817
5798-79-8	α-Bromobenzeneacetonitrile	302.15	528.15	1539.29	
5798-88-9	3-Bromo-3-methylbutanoic acid	347.15			
5798-94-7	5-Bromo-N,2-dihydroxybenzamide				
58-00-4	Apomorphine				
58-05-9	Folinic acid				
58-08-2	Caffeine	509.25		1231.9	
58-14-0	5-(4-Chlorophenyl)-6-ethyl-2,4-pyrimidinediamine	506.65			
58-15-1	Aminopyrine	380.65			
58-18-4	17-Methyltestosterone	436.65			
58-22-0	17-Hydroxyandrost-4-en-3-one, (17β)	424.15			
58-25-3	Chlorodiazepoxide	509.35			
58-27-5	2-Methyl-1,4-naphthalenedione	376.15			
58-32-2	Dipyridamole	436.15			
58-33-3	Promethazine hydrochloride	504.15			
58-36-6	10,10'-Oxydiphenoxarsine	458.15		1410	
58-38-8	Prochlorperazine	501.15			
58-39-9	Perphenazine	370.15			
58-40-2	Promazine				
58-46-8	Tetrabenazine	401.15			
58-54-8	Ethacrynic acid	395.65			
58-55-9	Theophylline	547.85			
58-56-0	Pyridoxine hydrochloride	480.15			
58-61-7	Adenosine	508.65			
58-63-9	Inosine				
58-72-0	1,1,2-Triphenylethene	340.95		1037.378	1.629278
58-73-1	2-(Diphenylmethoxy)-N,N-dimethylethanamine				
58-74-2	Papaverine	420.65		1337.2	1.625
58-85-5	Biotin				
58-86-6	D-Xylose	363.65		1525.2	
58-89-9	1,2,3,4,5,6-Hexachlorocyclohexane, (1α,2α,3β,4α,5α,6β)	388.15	584.15		
58-90-2	2,3,4,6-Tetrachlorophenol	343.15			
58-93-5	Hydrochlorothiazide	547.15			
58-94-6	Chlorothiazide				
58-95-7	Vitamin E acetate	245.65		953.321	1.4972
58-96-8	Uridine	438.15			
58-97-9	5'-Uridylic acid				
580-02-9	Methyl 2-(acetyloxy)benzoate	324.65			
580-13-2	2-Bromonaphthalene	331.15	554.15	1605.25	1.63826
580-15-4	6-Quinolinamine	389.15			
580-16-5	6-Quinolinol	468.15	633.15		
580-17-6	3-Quinolinamine	367.15			
580-18-7	3-Quinolinol	474.45			
580-20-1	7-Quinolinol	511.15			
580-22-3	2-Quinolinamine	402.15			
580-48-3	6-Chloro-N,N,N',N'-tetraethyl-1,3,5-triazine-2,4-diamine	300.15		1095.62	1.53202
580-51-8	3-Hydroxybiphenyl	351.15			
5805-76-5	1-Ethyl-2-methyl-1H-benzimidazole	324.15	569.15	1073.25	
5809-59-6	2-Hydroxy-3-butenenitrile				
581-08-8	N-(2-Ethoxyphenyl)acetamide	352.15	572.15		
581-40-8	2,3-Dimethylnaphthalene	377.45	540.15	1003.2	1.50602
581-42-0	2,6-Dimethylnaphthalene	383.25	526.15	1003.2	
581-43-1	2,6-Naphthalenediol	493.15			
581-46-4	3,3'-Bipyridine	341.15	564.65	1161.42	
581-47-5	2,4'-Bipyridine	332.85	556.15		
581-49-7	1,2,3,6-Tetrahydro-2,3'-bipyridine, (S)-			1091.19	1.56762
581-50-0	2,3'-Bipyridine		568.65	1140.2	1.62232
581-55-5	Benzylidene diacetate	318.25	493.15	1112	
581-64-6	3,7-Diaminophenothiazin-5-ium chloride				
581-89-5	2-Nitronaphthalene	348.15	587.15		
581-96-4	2-Naphthaleneacetic acid	415.15			
5810-88-8	Bis(2-ethylhexyl) phosphorodithioate				
5813-64-9	2,2-Dimethylpropylamine		355.15	745.52	1.40232
58138-08-2	Tridiphane	315.25			
58167-01-4	Diisopropyl tartrate, (±)-	307.15	548.15	1116.62	
582-16-1	2,7-Dimethylnaphthalene	369.15	535.55	1003.2	
582-17-2	2,7-Naphthalenediol	466.15			
582-22-9	β-Methylbenzeneethanamine		483.15	943.34	1.52552
582-24-1	(Hydroxyacetyl)benzene	363.15		1096.399	
582-25-2	Potassium benzoate				
582-33-2	Ethyl 3-aminobenzoate		567.15	1171.2	1.560022
582-60-5	5,6-Dimethyl-1H-benzimidazole	478.65			
582-61-6	Benzoyl azide	305.15		1168.035	
582-62-7	3-Methyl-1-phenyl-1-butanone		509.65	970.116	1.513915
582-78-5	N-(4-Methylphenyl)benzamide	431.15		1202.15	
583-03-9	1-Phenyl-1-pentanol			965.52	1.408625
583-04-0	Allyl benzoate			1056.915	1.51782
583-05-1	1-Phenyl-1,4-pentanedione				1.52503
583-06-2	4-Oxo-4-phenyl-2-butenoic acid	372.15			
583-15-3	Mercury(II) benzoate	398.15			
583-19-7	1-Bromo-2-ethoxybenzene		496.15	1422.32	
583-39-1	1,3-Dihydro-2H-benzimidazole-2-thione	589.45			
583-48-2	3,4-Dimethylhexane		390.85	715.125	1.40412
583-50-6	D-Erythrose				
583-53-9	o-Dibromobenzene	279.15	493.55	1984.32	1.61552
583-55-1	1-Bromo-2-iodobenzene	275.25	530.15	2257.025	1.661825
583-58-4	3,4-Dimethylpyridine	262.7	452.25	928.12	1.50962
583-61-9	2,3-Dimethylpyridine		434.25	931.925	1.50572
583-63-1	3,5-Cyclohexadiene-1,2-dione				
583-68-6	2-Bromo-4-methylaniline	299.15	513.15	1510.2	1.59992
583-69-7	2-Bromo-1,4-benzenediol	384.65			
583-70-0	1-Bromo-2,4-dimethylbenzene	256.15	477.15	1341.92	1.55012
583-71-1	4-Bromo-1,2-dimethylbenzene	272.95	488.15	1370.82	1.55302
583-75-5	4-Bromo-2-methylaniline	332.65	513.15		
583-78-8	2,5-Dichlorophenol	330.95	495.15		
583-86-8	9,10,18-Trihydroxyoctadecanoic acid, (R*,R*)	374.65			
583-91-5	2-Hydroxy-4-(methylthio)butanoic acid				
583-92-6	4-(Methylthio)-2-oxobutanoic acid				
5836-10-2	Chloropropylate	345.45			
5837-78-5	Ethyl trans-2-methyl-2-butenoate		429.15	920.02	1.43402
584-02-1	3-Pentanol	203.25	396.15	820.32	1.41042
584-12-3	2-Bromofuran		376.15	1650.02	1.49802
584-48-5	1-Bromo-2,4-dinitrobenzene	348.15			
584-79-2	Allethrin			1010.2	
584-84-9	Toluene-2,4-diisocyanate	293.65	524.15	1224.42	
584-94-1	2,3-Dimethylhexane		388.75	691.225	1.40112
584-98-5	Bromobutanedioic acid, (±)-	434.15		2073.25	
58479-61-1	Chloro(tert-butyl)diphenylsilane			1072	1.56752
585-07-9	tert-Butyl methacrylate		408.35		
585-18-2	D-Erythrose 4-phosphate				
585-32-0	α,α-Dimethylbenzenemethanamine		469.65	942.32	1.518125
585-34-2	3-tert-Butylphenol	320.15	513.15		
585-38-6	3-Hydroxybenzenesulfonic acid				
585-47-7	1,3-Benzenedisulfonyl dichloride	334.95			
585-48-8	2,6-Di-tert-butylpyridine				
585-71-7	(1-Bromoethyl)benzene		474.15	1353.525	1.554325
585-74-0	1-(3-Methylphenyl)ethanone		497.15	1016.5	1.53315
585-76-2	3-Bromobenzoic acid	429.85	558.15	1845.2	
585-79-5	1-Bromo-3-nitrobenzene	327.15	538.15	1703.62	1.59792
585-84-2	cis-1-Propene-1,2,3-tricarboxylic acid	398.15			
585-99-9	α-D-Melibiose				
5857-36-3	2,2,4-Trimethyl-3-pentanone		419.15	806.52	1.406
5858-18-4	2,5-Dichlorobenzenethiol				
586-37-8	1-(3-Methoxyphenyl)ethanone	368.65	513.15	1034.319	1.54102
586-38-9	3-Methoxybenzoic acid	380.15			
586-39-0	1-Vinyl-3-nitrobenzene	263.15		1155.232	1.58362
586-42-5	3-Acetylbenzoic acid	445.15			
586-61-8	1-Bromo-4-isopropylbenzene	250.75	492.15	1314.52	1.55692
586-62-9	Terpinolene		460.15	863.215	1.48832
586-75-4	4-Bromobenzoyl chloride	310.15	518.15		
586-76-5	4-Bromobenzoic acid	527.15		1894.2	
586-77-6	4-Bromo-N,N-dimethylaniline	328.15	537.15	1322.01	
586-78-7	1-Bromo-4-nitrobenzene	406.15	525.15	1948.25	
586-84-5	2-(Methoxymethyl)-5-nitrofuran			1281.2	1.53252
586-89-0	4-Acetylbenzoic acid	481.15			
586-95-8	4-Pyridinemethanol	326.15			
586-96-9	Nitrosobenzene	340.95			
586-98-1	2-Pyridinemethanol			1131.72	1.54442
58654-67-4	5-Methyl-2-octanone				
587-02-0	3-Ethylaniline	209.15	487.15	989.625	
587-03-1	3-Methylbenzenemethanol	253.15	488.65	915.717	
587-04-2	3-Chlorobenzaldehyde	290.65	486.65	1241.02	1.56502
587-61-1	Propyliodone	459.15			
587-65-5	2-Chloro-N-phenylacetamide				
587-85-9	Diphenylmercury			2318.25	
587-90-6	N,N'-Bis(4-nitrophenyl)urea				
587-98-4	Metanil Yellow				
5870-93-9	Heptyl butanoate	215.65	498.35	863.72	1.42312
5878-19-3	1-Methoxy-2-propanone		383.15	957.25	1.39702
588-07-8	N-(3-Chlorophenyl)acetamide	349.75	606.15		
588-16-9	N-(3-Methoxyphenyl)acetamide	354.15			
588-32-9	3-Chlorophenoxyacetic acid	383.15			
588-46-5	N-Benzylacetamide	334.15			
588-52-3	4,4'-Diethoxyazobenzene	435.15			
588-63-6	(3-Bromopropoxy)benzene	283.85		1364.16	
588-64-7	Benzaldehyde, phenylhydrazone	430.15			
588-68-1	Benzaldehyde, (phenylmethylene)hydrazone	366.15			
588-72-7	(trans-2-Bromovinyl)benzene	280.15		1426.916	1.60932
588-73-8	(cis-2-Bromovinyl)benzene	266.15		1432.21	1.599022
588-96-5	1-Bromo-4-ethoxybenzene	275.15	504.15	1407.125	1.55172
5881-17-4	3-Ethyloctane		438.15	735.925	1.41562
5882-44-0	N,N-Dimethylaniline hydrochloride	363.15		1115.619	
589-08-2	N-Methylbenzeneethanamine		479.15	932.5	1.51622
589-09-3	N-Allylaniline		492.15	973.625	1.5632
589-10-6	(2-Bromoethoxy)benzene	312.15		1355.52	
589-15-1	1-Bromo-4-(bromomethyl)benzene	336.15			
589-16-2	4-Ethylaniline	268.05	490.35	967.92	1.55542
589-17-3	1-Bromo-4-(chloromethyl)benzene	315.15	509.15		
589-18-4	4-Methylbenzenemethanol	331.87	490.15	978.22	
589-21-9	(4-Bromophenyl)hydrazine	381.15			
589-29-7	1,4-Benzenedimethanol	390.65			
589-38-8	3-Hexanone	217.75	396.65	811.82	1.40042
589-40-2	sec-Butyl formate		366.75	884.62	1.38652
589-43-5	2,4-Dimethylhexane		382.55	696.225	1.392925
589-44-6	3-Amino-4-hydroxybutanoic acid	489.15			
589-53-7	4-Methylheptane	152.15	390.85	704.62	1.39792
589-55-9	4-Heptanol	231.95	434.15	818.32	1.42052
589-59-3	Isobutyl 3-methylbutanoate		442.15	853.2	1.40572
589-63-9	4-Octanone		439.15	814.625	1.417314
589-75-3	Butyl octanoate	230.25	513.15	862.82	1.423225
589-81-1	3-Methylheptane	152.67	392.05	701.725	1.396125
589-87-7	1-Bromo-4-iodobenzene	363.52	525.15		
589-92-4	4-Methylcyclohexanone	232.55	444.05	913.82	1.44512
589-93-5	2,5-Dimethylpyridine	259.07	430.15	929.72	1.50062
589-98-0	3-Octanol	228.15	457.15	825.82	
5891-21-4	5-Chloro-2-pentanone			1052.32	1.43752
5894-60-0	Hexadecyltrichlorosilane		542.15		
5897-76-7	α-(1-Aminopropyl)benzenemethanol	352.65			
59-00-7	4,8-Dihydroxy-2-quinolinecarboxylic acid	562.15			
59-01-8	Kanamycin A				
59-02-9	Vitamin E	276.15		950.25	1.504525
59-05-2	Methotrexate				
59-23-4	D-Galactose	443.15			
59-26-7	N,N-Diethyl-3-pyridinecarboxamide	298.15		1060.25	1.5252
59-30-3	Folic acid				
59-31-4	2-Quinolinol	472.65			
59-40-5	4-Amino-N-2-quinoxalinylbenzenesulfonamide	520.65			
59-43-8	Thiamine chloride	437.15			
59-46-1	2-Diethylaminoethyl 4-aminobenzoate	334.15			
59-47-2	3-(2-Methylphenoxy)-1,2-propanediol				
59-48-3	1,3-Dihydro-2H-indol-2-one	401.15			
59-49-4	2(3H)-Benzoxazolone	413.15	608.15		
59-50-7	4-Chloro-3-methylphenol	328.15	505.15		
59-52-9	2,3-Dimercapto-1-propanol			1246.32	1.57492
59-56-3	α-D-Glucose 1-phosphate				
59-66-5	Acetazolamide	533.65			
59-67-6	3-Pyridinecarboxylic acid	510.15		1473.25	
59-87-0	Nitrofurazone	510.15			
59-88-1	Phenylhydrazine monohydrochloride				
59-89-2	4-Nitrosomorpholine	302.15	498.15		
59-92-7	Levodopa	550.15			
59-96-1	Phenoxybenzamine	312.15			
59-97-2	4,5-Dihydro-2-(phenylmethyl)-1H-imidazole, monohydrochloride	447.15			
59-98-3	2-Benzyl-4,5-dihydro-1H-imidazole	340.15			
590-01-2	Butyl propanoate	183.65	418.25	875.42	1.40142
590-02-3	Butyl chloroacetate		454.15	1070.42	1.42972
590-11-4	cis-1,2-Dibromoethene	220.15	384.15	2246.42	1.54282
590-12-5	trans-1,2-Dibromoethene	266.65	380.15	2230.82	1.550518
590-13-6	cis-1-Bromopropene	160.15	331.15	1429.12	1.45602
590-15-8	trans-1-Bromopropene		334.15		
590-18-1	cis-2-Butene	134.26	276.87		
590-19-2	1,2-Butadiene	136.95	284.15	676	1.42051
590-26-1	cis-1,2-Diiodoethene	260.15		3062.52	
590-35-2	2,2-Dimethylpentane	149.44	352.35	673.92	1.38222
590-36-3	2-Methyl-2-pentanol	170.15	394.15	835.016	1.41002
590-42-1	tert-Butyl isothiocyanate	283.65	413.15	918.71	
590-46-5	Betaine, hydrochloride	500.65			
590-50-1	4,4-Dimethyl-2-pentanone	209.15	397.15	809.25	1.40362
590-54-5	Acetyl phosphate				
590-55-6	Carbamoyl dihydrogen phosphate				
590-60-3	tert-Pentyl carbamate	359.15			
590-66-9	1,1-Dimethylcyclohexane	239.84	392.65	780.92	1.42902
590-67-0	1-Methylcyclohexanol	299.35	428.15	919.42	1.45952
590-73-8	2,2-Dimethylhexane	151.96	379.95	695.32	1.39352
590-86-3	3-Methylbutanal	222.15	365.65	797.72	1.39022
590-90-9	4-Hydroxy-2-butanone		455.15	1023.32	1.458514
590-92-1	3-Bromopropanoic acid	335.65		1482.5	
590-93-2	2-Butynoic acid	351.15	476.15	964.12	
5902-51-2	Terbacil	449.45		1342.5	
5905-52-2	Ferrous lactate				
59080-40-9	2,2',4,4',5,5'-Hexabromobiphenyl	433.15			
591-07-1	N-(Aminocarbonyl)acetamide	491.15			
591-08-2	N-(Aminothioxomethyl)acetamide	438.15			
591-09-3	Acetyl nitrate			1241.5	
591-11-7	5-Methyl-2(5H)-furanone	256.15	482.15	1081.02	1.44542
591-12-8	5-Methyl-2(3H)-furanone	291.15		1084.2	1.44762
591-17-3	3-Bromotoluene	235.05	457.15	1409.92	1.55102
591-18-4	1-Bromo-3-iodobenzene	263.85	525.15		
591-19-5	3-Bromoaniline	291.65	523.15	1579.32	1.62602
591-20-8	3-Bromophenol	306.15	509.65		
591-22-0	3,5-Dimethylpyridine	266.81	445.05	941.92	1.50612
591-27-5	3-Aminophenol	395.65			
591-31-1	3-Methoxybenzaldehyde		493.15	1118.72	1.55302
591-34-4	sec-Butyl propanoate		406.15	865.72	1.39522
591-35-5	3,5-Dichlorophenol	340.95	506.15		
591-47-9	4-Methylcyclohexene	154.15	376.15	799.12	1.44142
591-49-1	1-Methylcyclohexene	152.75	383.45	810.22	1.45032
591-50-4	Iodobenzene	242.45	461.65	1830.82	1.62002
591-54-8	4-Pyrimidinamine	424.65			
591-60-6	Butyl acetoacetate	237.55		967.125	1.41372
591-62-8	Ethyl N-butylcarbamate	251.15	494.15	943.426	1.427826
591-68-4	Butyl pentanoate	189.38	459.15	871.015	1.41282
591-76-4	2-Methylhexane	154.92	363.15	678.72	1.38482
591-78-6	2-Hexanone	217.7	400.75	811.32	1.40072
591-80-0	4-Pentenoic acid	250.65	461.65	980.92	1.42812
591-81-1	4-Hydroxybutanoic acid	256.15			
591-82-2	Isobutyl isothiocyanate		433.15	963.114	1.500514
591-84-4	Isobutyl thiocyanate	214.25	448.15		
591-87-7	Allyl acetate		377.15	927.52	1.40492
591-93-5	1,4-Pentadiene	124.85	299.05	660.82	1.38882
591-95-7	1,2-Pentadiene	135.88	317.15	692.62	1.42092
591-96-8	2,3-Pentadiene	147.5	321.35	695.02	1.42842
5910-87-2	trans,trans-2,4-Nonadienal			862.25	1.52072
5910-89-4	2,3-Dimethylpyrazine		434.15	1028.1	
5911-04-6	3-Methylnonane	188.45	441.15	735.42	1.41252
5911-08-0	(Chloromethyl)cyclopropane	182.25	360.15	982.5	1.43502
5912-86-7	cis-2-Methoxy-4-(1-propenyl)phenol			1083.72	1.57262
59122-46-2	Misoprostol				
5915-41-3	Terbuthylazine	449.25		1188.2	
5917-47-5	1-Dodecylpiperidine			837.82	1.45882
592-13-2	2,5-Dimethylhexane	182.01	382.25	690.125	1.39252
592-20-1	1-(Acetyloxy)-2-propanone		444.15	1075.72	1.41412
592-27-8	2-Methylheptane	164.15	390.75	698.02	1.39492
592-31-4	Butylurea	369.45			
592-34-7	Butyl chloroformate		415.15	1074.25	1.41142
592-35-8	Butyl carbamate	326.15			
592-41-6	1-Hexene	133.39	336.55	668.525	1.385225
592-42-7	1,5-Hexadiene	132.45	332.35	687.825	1.40422
592-44-9	1,2-Hexadiene		349.15	714.92	1.42822
592-50-7	1-Fluoropentane	153.15	336.15	790.72	
592-51-8	4-Pentenenitrile		413.15	823.924	1.421314
592-55-2	1-Bromo-2-ethoxyethane		400.15	1385.2	1.44472
592-57-4	1,3-Cyclohexadiene	184.15	353.45	840.52	1.47552
592-62-1	Methylazoxymethanol acetate		464.15		
592-65-4	Diisobutyl sulfide	167.65	446.15	836.31	
592-76-7	1-Heptene	154.32	367.15	697.02	1.39982
592-82-5	Butyl isothiocyanate		440.15	954.62	1.5012
592-84-7	Butyl formate	183.15	379.25	895.82	1.38872
592-88-1	Diallyl sulfide	188.15	411.15	887.727	1.487025
592-90-5	Oxepane		391.15	892.5	1.44002
5921-54-0	2-Butanone (1-methylpropylidene)hydrazone		443.15	840.42	1.45112
59227-89-3	Laurocapram	266.15		910	1.4701
59277-89-3	Acyclovir	498.15			
593-08-8	2-Tridecanone	301.15	541.15	821.73	1.43182
593-39-5	cis-6-Octadecenoic acid	303.15		870.04	1.45334
593-45-3	Octadecane	301.32	589.15	776.828	1.43902
593-49-7	Heptacosane	331.95	715.15	779.66	1.434565
593-50-0	1-Triacontanol	361.15		777.95	
593-51-1	Methylamine hydrochloride	500.65			
593-52-2	Methylarsine	130.15	275.15		
593-53-3	Fluoromethane	129.85	194.84		1.167425
593-54-4	Methylphosphine		257.15		
593-56-6	O-Methylhydroxylamine hydrochloride	423.15			
593-57-7	Dimethylarsine	137.05	309.15	1208.29	