CASRN	Name	Tm	Tb	rho	RI
5232-99-5	Ethyl 2-cyano-3,3-diphenyl-2-propenoate	383.65			
5234-68-4	Carboxin	369.15			
52387-50-5	4-Hexen-2-ol		410.65	840.518	1.43922
52390-72-4	2-Heptanol, (±)-		432.15	816.72	1.42102
524-15-2	4,8-Dimethoxyfuro[2,3-b]quinoline	415.15			
524-30-1	Fraxin	478.15			
524-36-7	Pyridoxamine dihydrochloride				
524-38-9	2-Hydroxy-1H-isoindole-1,3(2H)-dione	505.15			
524-40-3	Ricinine	474.65			
524-42-5	1,2-Naphthalenedione	419.15		1450.25	
524-63-0	Cupreine	475.15			
524-80-1	9H-Carbazole-9-acetic acid	488.15			
524-81-2	Mebhydroline	368.15			
524-96-9	Benzylimidobis(p-methoxyphenyl)methane	363.15			
5241-58-7	L-Phenylalaninamide	355.15			
5244-34-8	1,2-Bis(2-hydroxyethylthio)ethane	337.95			
525-06-4	Diphenylketene		540.65	1110.713	1.61514
525-37-1	1,6-Naphthalenedisulfonic acid				
525-64-4	9H-Fluorene-2,7-diamine	439.15			
525-66-6	Propranolol	369.15			
525-68-8	Galipine	388.65			
525-82-6	2-Phenyl-4H-1-benzopyran-4-one	369.85			
52562-19-3	2-(1-Methylvinyl)aniline			977.25	1.57222
5258-50-4	Tetrahydro-3-methyl-2H-thiopyran	213.15	431.25	947.32	1.49222
5259-88-1	Oxycarboxin	403.25			
5259-98-3	5-Chloro-1-pentanol				1.45182
526-08-9	Sulfaphenazole	454.15			
526-31-8	N-Methyl-L-tryptophan				
526-35-2	5-Methyl-3-allyl-2,4-oxazolidinedione				1.468825
526-55-6	1H-Indole-3-ethanol	332.15			
526-73-8	1,2,3-Trimethylbenzene	247.83	449.15	894.42	1.51392
526-75-0	2,3-Xylenol	345.85	490.03		1.54202
526-84-1	2,3-Dihydroxymaleic acid				
526-85-2	2,3,4-Trimethylphenol	354.15	509.15		
526-86-3	2,3-Dimethyl-2,5-cyclohexadiene-1,4-dione	328.15			
526-95-4	D-Gluconic acid	404.15			
526-99-8	Galactaric acid				
5263-87-6	6-Methoxyquinoline	299.65	579.15	1152.2	
52645-53-1	Permethrin	307.15		1232	
52663-71-5	2,2',3,3',4,4',6-Heptachlorobiphenyl	395.35			
52663-77-1	2,2',3,3',4,5,5',6,6'-Nonachlorobiphenyl	455.75			
527-07-1	Sodium gluconate				
527-09-3	Copper(II) gluconate	429.15			
527-17-3	2,3,5,6-Tetramethyl-2,5-cyclohexadiene-1,4-dione	384.84			
527-18-4	2,3,5,6-Tetramethyl-1,4-benzenediol	506.15			
527-20-8	2,3,4,5,6-Pentachloroaniline	507.05			
527-35-5	2,3,5,6-Tetramethylphenol	391.15	521.15		
527-50-4	L-Xylulose				
527-52-6	Digitoxose	385.15			
527-53-7	1,2,3,5-Tetramethylbenzene	249.35	471.15	890.32	1.51302
527-54-8	3,4,5-Trimethylphenol	381.15	522.15		
527-60-6	2,4,6-Trimethylphenol	345.25	494.15		
527-61-7	2,6-Dimethyl-2,5-cyclohexadiene-1,4-dione	345.65		1047.928	
527-62-8	2-Amino-4,6-dichlorophenol	368.65			
527-69-5	2-Furancarbonyl chloride	272.15	446.15	1324.25	1.53102
527-72-0	2-Thiophenecarboxylic acid	400.95	535.15		
527-73-1	2-Nitro-1H-imidazole				
527-84-4	1-Isopropyl-2-methylbenzene	201.65	451.15	876.62	1.50062
527-85-5	2-Methylbenzamide	420.15			
527-89-9	2-Hydroxybenzenecarbodithioic acid	322.15			
527-93-5	Diploicin	505.15			
52708-03-9	4-Nonanol		465.65	828.22	1.41972
5271-38-5	2-(Methylthio)ethanol			1063.2	1.48613
5271-67-0	2-Thiophenecarbonyl chloride		553.15		
5274-68-0	Dodecyltetraethylene glycol monoether				
5274-70-4	2-Hydroxy-3-nitrobenzaldehyde	382.65			
528-21-2	1-(2,3,4-Trihydroxyphenyl)ethanone	446.15			
528-29-0	1,2-Dinitrobenzene	388.95	592.15	1311.912	1.56517
528-44-9	1,2,4-Benzenetricarboxylic acid	492.15			
528-45-0	3,4-Dinitrobenzoic acid	438.15			
528-48-3	Fisetin	603.15			
528-53-0	Delphinidin	623.15			
528-71-2	1-Phenazinol	431.15			
528-75-6	2,4-Dinitrobenzaldehyde	344.95			
528-76-7	2,4-Dinitrobenzenesulfenyl chloride	372.15			
528-79-0	2-Isopropyl-5-methylphenyl acetate		518.15	1009.9	
528-81-4	6-Deoxy-L-ascorbic acid	441.15			
5281-13-0	Piprotal				
5281-18-5	Benzaldehyde hydrazone	289.15			
5283-66-9	Trichlorooctylsilane		505.15		1.44802
5284-66-2	1-Propanesulfonic acid	281.15		1251.625	
5285-87-0	Phenyl thiocyanate		505.65	1153.18	
52896-87-4	4-Isopropylheptane		434.15	735.425	1.41532
529-16-8	2,3-Dimethyl-2-norbornene		413.65	869.817	1.468817
529-17-9	8-Methyl-8-azabicyclo[3.2.1]octane		439.15	925.115	
529-19-1	2-Methylbenzonitrile	262.65	478.15	995.52	1.52792
529-20-4	2-Methylbenzaldehyde		468.15	1032.82	1.54622
529-21-5	3-Ethyl-4-methylpyridine		471.15	928.617	
529-23-7	2-Aminobenzaldehyde	313.65			
529-28-2	1-Iodo-2-methoxybenzene		514.15	1820	
529-33-9	1,2,3,4-Tetrahydro-1-naphthol	307.65	528.15	1099.62	1.56382
529-34-0	1-Tetralone	281.15		1098.816	1.56722
529-35-1	5,6,7,8-Tetrahydro-1-naphthol	341.15	539.15	1055.675	
529-36-2	1-Naphthalenethiol			1160.72	1.68022
529-38-4	3-(Benzoyloxy)-8-methyl-8-azabicyclo[3.2.1]octane-2-carboxylic acid, ethyl ester, [1R-(exo,exo)]	382.15			
529-65-7	N-Ethyl-N-phenylacetamide	328.15	533.15	993.86	
529-84-0	6,7-Dihydroxy-4-methyl-2H-1-benzopyran-2-one	548.15			
529-86-2	9-Anthracenol	425.15			
529-92-0	Cusparine	365.15			
52918-63-5	Deltamethrin	373.55			
5292-21-7	Cyclohexaneacetic acid	302.05	518.15	1042.318	1.47752
5292-43-3	tert-Butyl bromoacetate				1.44302
5292-53-5	Diethyl benzylidenemalonate	305.15		1104.52	1.53892
53-03-2	17,21-Dihydroxypregna-1,4-diene-3,11,20-trione				
53-05-4	Tetrahydrocortisone	463.15			
53-06-5	17,21-Dihydroxypregn-4-ene-3,11,20-trione	495.15			
53-16-7	Estrone	533.35		1236.25	
53-19-0	Mitotane	349.35			
53-34-9	Fluprednisolone	483.15			
53-39-4	Oxandrolone	509.15			
53-41-8	3-Hydroxyandrostan-17-one, (3α,5α)	458.15			
53-46-3	Methantheline bromide	447.65			
53-59-8	Coenzyme II				
53-70-3	Dibenz[a,h]anthracene	542.15			
53-84-9	Coenzyme I				
53-86-1	Indomethacin	433.15			
53-89-4	Benzpiperylon				
53-96-3	2-(Acetylamino)fluorene	466.15			
530-14-3	1-[4-(β-D-Glucopyranosyloxy)phenyl]ethanone	468.65			
530-40-5	N,N-Diethyl-4-pyridinecarboxamide				1.5252
530-43-8	Chloramphenicol palmitate	363.15			
530-44-9	[4-(Dimethylamino)phenyl]phenylmethanone	365.65			
530-48-3	1,1-Diphenylethene	281.35	550.15	1023.22	1.60852
530-50-7	1,1-Diphenylhydrazine	323.65		1190.16	
530-55-2	2,6-Dimethoxy-2,5-cyclohexadiene-1,4-dione	529.15			
530-57-4	4-Hydroxy-3,5-dimethoxybenzoic acid	477.65			
530-59-6	Sinapinic acid				
530-62-1	N,N'-Carbonyldiimidazole	392.15			
530-78-9	2-[[3-(Trifluoromethyl)phenyl]amino]benzoic acid	406.65			
530-85-8	3-(2-Nitrophenyl)-2-propynoic acid				
530-91-6	1,2,3,4-Tetrahydro-2-naphthol	288.65			
530-93-8	3,4-Dihydro-2(1H)-naphthalenone	291.15	510.15	1105.527	1.55982
53022-14-3	Bornyl 3-methylbutanoate, (1R)-		530.65	955.25	
5307-02-8	2-Methoxy-1,4-benzenediamine	380.15			
5307-14-2	2-Nitro-1,4-benzenediamine	413.15			
531-02-2	[1,1'-Biphenyl]-3,3',5,5'-tetrol	583.15			
531-18-0	Hexamethylolmelamine	410.15			
531-29-3	Coniferin	459.15			
531-37-3	2-Methoxyphenol benzoate	330.65			
531-39-5	2-Methoxyphenyl pentanoate		538.15	1052.5	
531-59-9	7-Methoxy-2H-1-benzopyran-2-one	391.45			
531-75-9	Esculin	478.15			
531-81-7	2-Oxo-2H-1-benzopyran-3-carboxylic acid				
531-84-0	Hexadecyl 3-hydroxy-2-naphthalenecarboxylate	345.65			
531-85-1	[1,1'-Biphenyl]-4,4'-diamine, dihydrochloride	573.15			
531-91-9	N,N'-Diphenyl-[1,1'-biphenyl]-4,4'-diamine	520.15			
531-95-3	Equol	462.65			
5314-37-4	[1,1'-Biphenyl]-4,4'-disulfonic acid	345.65			
5314-55-6	Ethyltrimethoxysilane		396.05	948.82	1.38382
53152-98-0	3-Methylpiperidine, (±)-	245.95	398.15	844.626	1.44702
53178-20-4	2-Chlorobutane	141.85	344.15	873.22	1.39712
53188-23-1	β-D-Fructose			1602	
532-03-6	Methocarbamol	366.15			
532-18-3	N-2-Naphthyl-2-naphthalenamine	445.35	744.15		
532-24-1	8-Methyl-8-azabicyclo[3.2.1]octan-3-one	316.15	500.15	1987.21	1.45981
532-27-4	α-Chloroacetophenone	329.65	520.15	1324.15	
532-28-5	α-Hydroxybenzeneacetonitrile	263.15		1120	
532-32-1	Sodium benzoate	573.15			
532-34-3	Indalone		536.15	1057.2	1.47525
532-40-1	Thiamine O-phosphate, chloride	473.15			
532-48-9	Euparin	394.65			
532-54-7	α-Oxobenzeneacetaldehyde aldoxime	402.15			
532-82-1	4-(Phenylazo)-1,3-benzenediamine monohydrochloride	391.65			
532-96-7	Benzo-2-phenylhydrazide	441.15	587.15		
53230-10-7	Mefloquine	451.35			
5325-97-3	1,2,3,4,5,6,7,8-Octahydrophenanthrene	289.85	568.15	1026.2	1.556917
5326-23-8	6-Chloro-3-pyridinecarboxylic acid				
5326-47-6	2-Amino-5-iodobenzoic acid				
5327-44-6	1-Methoxy-3,5-dinitrobenzene	378.45		1558.12	
5328-01-8	1-Ethoxynaphthalene	278.65	553.15	1060.2	1.595325
5329-12-4	(2,4,6-Trichlorophenyl)hydrazine	416.15			
533-17-5	N-(2-Chlorophenyl)acetamide	359.85			
533-18-6	2-Methylphenyl acetate		481.15	1053.315	1.50022
533-30-2	6-Benzothiazolamine	360.15			
533-31-3	1,3-Benzodioxol-5-ol	338.05			
533-32-4	N,N-Diethyl-3-methylbutanamide		484.15	876.42	1.44222
533-45-9	5-(2-Chloroethyl)-4-methylthiazole			1233.25	
533-48-2	Desthiobiotin	430.15			
533-49-3	L-Erythrose				
533-50-6	L-Erythrulose				
533-58-4	2-Iodophenol	316.15		1875.78	
533-60-8	2-Hydroxycyclohexanone				1.478521
533-67-5	D-2-Deoxyribose	363.15			
533-68-6	Ethyl 2-bromobutanoate		450.15	1327.32	1.44752
533-70-0	2,4-Diiodoaniline	368.65		2748.25	
533-73-3	1,2,4-Benzenetriol	413.65			
533-74-4	Dazomet	379.15			
533-75-5	2-Hydroxy-2,4,6-cycloheptatrien-1-one	323.15			
533-98-2	1,2-Dibromobutane	207.75	434.15	1791.52	1.40252
5331-43-1	Carbobenzoxyhydrazine	342.65			
5332-06-9	4-Bromobutanenitrile		471.15	1496.72	1.48182
5332-24-1	3-Bromoquinoline	286.45	548.15		1.66412
5332-25-2	6-Bromoquinoline	297.15	554.15		
5332-26-3	N-(Bromomethyl)phthalimide	424.65			
5332-52-5	1-Undecanethiol	271.65	530.55	844.82	1.45852
5332-73-0	3-Methoxy-1-propanamine		386.15	872.72	1.43912
5337-36-0	Trihexyl borate				
5337-93-9	1-(4-Methylphenyl)-1-propanone	280.35	509.15	992.62	1.52782
534-07-6	1,3-Dichloroacetone	318.15	446.55	1382.646	1.47164
534-13-4	N,N'-Dimethylthiourea	336.95			
534-15-6	Dimethylacetal	159.95	336.15	850.12	1.36682
534-22-5	2-Methylfuran	181.95	337.05	913.22	1.43422
534-26-9	4,5-Dihydro-2-methyl-1H-imidazole	380.15	469.65		
534-52-1	2-Methyl-4,6-dinitrophenol	359.15			
534-59-8	Butylpropanedioic acid	377.65			
534-84-9	2-(1-Piperidinylmethyl)cyclohexanone				
534-85-0	N-Phenyl-1,2-benzenediamine	352.65	586.15		
5340-36-3	3-Methyl-3-octanol			810.825	1.425725
5344-82-1	(2-Chlorophenyl)thiourea	416.45			
5344-90-1	2-Aminobenzenemethanol	356.65	546.15		
5345-47-1	2-Amino-3-pyridinecarboxylic acid				
5349-60-0	α-Ethyl-4-methoxybenzenemethanol				1.52772
535-11-5	Ethyl 2-bromopropanoate		425.15	1413.52	1.44902
535-13-7	Ethyl 2-chloropropanoate		420.15	1079.32	1.41782
535-15-9	Ethyl dichloroacetate		428.15	1282.72	1.43862
535-32-0	D-Ethionine				
535-46-6	Dihydroxyphenylstibine oxide	412.15			
535-77-3	1-Isopropyl-3-methylbenzene	209.35	448.15	861.02	1.49302
535-80-8	3-Chlorobenzoic acid	427.35	556.15	1496.25	
535-83-1	Trigonelline				
535-86-4	5-Isopropyl-3-methyl-2-cyclohexen-1-one, (±)-		517.15	934.021	1.486521
535-87-5	3,5-Diaminobenzoic acid	501.15			
535-89-7	Crimidine	360.15			
5350-57-2	Benzophenone hydrazone	370.45			
5351-69-9	4-Phenyl-3-thiosemicarbazide				
53558-25-1	Pyriminil				
5356-83-2	Vinylethoxydimethylsilane		372.15	790.2	1.39832
53566-37-3	5-Methyl-2-hexyne	180.55	375.15	737.82	1.41762
536-08-3	3,4-Dihydroxy-5-[(3,4,5-trihydroxybenzoyl)oxy]benzoic acid				
536-17-4	4-(Dimethylamino)benzalrhodanine				
536-25-4	Methyl 3-amino-4-hydroxybenzoate	416.15			
536-33-4	2-Ethyl-4-pyridinecarbothioamide	436.15			
536-38-9	2-Bromo-1-(4-chlorophenyl)ethanone	369.65			
536-50-5	α,4-Dimethylbenzenemethanol		488.15	966.825	1.52462
536-57-2	4-Methylbenzenesulfinic acid	359.65			
536-59-4	4-(1-Methylvinyl)-1-cyclohexene-1-methanol		517.15	969.02	1.50052
536-60-7	4-Isopropylbenzenemethanol	301.15	522.15	981.82	1.52102
536-66-3	4-Isopropylbenzoic acid	390.15	574.15	1162.4	
536-69-6	5-Butyl-2-pyridinecarboxylic acid	370.15			
536-74-3	Phenylacetylene	228.05	416.15	930.02	1.54702
536-75-4	4-Ethylpyridine	182.65	441.15	941.72	1.50092
536-78-7	3-Ethylpyridine	196.25	439.15	953.925	1.50212
536-80-1	Iodosylbenzene				
536-88-9	4-Ethyl-2-methylpyridine		453.15	913.025	
536-90-3	3-Methoxyaniline	272.15	524.15	1096.2	1.57942
536-95-8	4-[(Benzylsulfonyl)amino]benzoic acid	502.65			
53631-70-2	α-(1-Aminoethyl)benzenemethanol, hydrochloride	471.65			
5368-81-0	Methyl 3-methoxybenzoate		521.15	1131.02	1.52242
537-17-7	N-Phenyl-1,3,5-triazine-2,4-diamine	508.65			
537-26-8	Tropacocaine	322.15		1042.61	1.50801
537-29-1	Norhyoscyamine	413.65			
537-39-3	Glycerol trielaidate				
537-45-1	2,6-Dibromoquinone-4-chlorimide	356.15			
537-46-2	Methamphetamine		485.15		
537-47-3	N-Phenylhydrazinecarboxamide	401.15			
537-49-5	N-Methyl-L-tyrosine	566.15			
537-55-3	N-Acetyl-L-tyrosine	426.15			
537-64-4	Bis(4-methylphenyl)mercury	518.85			
537-65-5	N-(4-Aminophenyl)-1,4-benzenediamine	431.15			
537-91-7	Bis(3-nitrophenyl) disulfide	357.15			
537-92-8	N-(3-Methylphenyl)acetamide	338.65	576.15	1141.15	
5370-25-2	1-(5-Bromo-2-thienyl)ethanone	367.65			
53714-56-0	Leuprolide				
53772-78-4	Perfluorodimethoxymethane	112.15	263.15		
53778-43-1	1-Ethyl-1-methylcyclopropane	142.95	330.15	696.825	1.38872
53780-34-0	Mefluidide	457.45			
538-07-8	2-Chloro-N-(2-chloroethyl)-N-ethylethanamine	239.15		1086.123	1.465325
538-08-9	Diallylcyanamide				
538-23-8	Glycerol trioctanoate	282.75	720.15	954.02	1.44822
538-24-9	Glycerol trilaurate			898.655	1.44046
538-32-9	Benzylurea	421.15			
538-39-6	1,2-Di(p-tolyl)ethane	354.95			
538-41-0	4,4'-Diaminoazobenzene	523.65			
538-43-2	3-Phenoxy-1,2-propanediol	340.65		1225.2	
538-44-3	4,4-Dimethyl-1-phenyl-1-penten-3-one	316.15		950.846	1.552325
538-51-2	N-(Phenylmethylene)aniline	329.15	583.15	1038.55	1.6001
538-56-7	3-Phenyl-2-propenoic anhydride	409.15			
538-58-9	1,5-Diphenyl-1,4-pentadien-3-one				
538-62-5	Diphenylcarbazone				
538-64-7	Benzyl fumarate	332.15			
538-68-1	Pentylbenzene	194.95	476.15	858.52	1.48782
538-74-9	Dibenzyl sulfide	321.45	608.15	1058.35	
538-75-0	Dicyclohexylcarbodiimide	307.65			
538-81-8	trans,trans-1,4-Diphenyl-1,3-butadiene	422.15	625.15		
538-86-3	Benzyl methyl ether	220.55	448.15	963.42	1.50082
538-90-9	2-(1-Propenyl)piperidine	281.15	441.15	871.615	
538-93-2	Isobutylbenzene	221.55	445.85	853.22	1.48662
53861-57-7	L-γ-Carboxyglutamic acid	440.15			
5388-62-5	4-Chloro-2,6-dinitroaniline	420.15			
539-00-4	1-(2-Piperidinyl)-2-propanone, (±)-			962.42	1.46832
539-03-7	N-(4-Chlorophenyl)acetamide	451.55	605.15	1385.22	
539-08-2	N-(4-Ethoxyphenyl)-2-hydroxypropanamide	391.15			
539-12-8	4-(1-Propenyl)phenol	367.15			
539-15-1	4-[2-(Dimethylamino)ethyl]phenol	390.65			
539-30-0	Benzyl ethyl ether		461.15	947.82	1.49552
539-47-9	3-(2-Furanyl)-2-propenoic acid	414.15	559.15		
539-52-6	3-(4-Methyl-3-pentenyl)furan		458.65	901.72	1.470521
539-74-2	Ethyl 3-bromopropanoate		436.15	1412.318	1.45162
539-80-0	2,4,6-Cycloheptatrien-1-one	268.15		1095.22	1.617222
539-82-2	Ethyl pentanoate	181.95	415.15	877.02	1.41202
539-86-6	Allicin			1112.2	1.5612
539-88-8	Ethyl levulinate		478.95	1011.12	1.42292
539-89-9	Ethyl isobutylcarbamate	208.15		943.22	1.42882
539-90-2	Isobutyl butanoate		430.15	836.418	1.40322
539-92-4	Diisobutyl carbonate		463.15	913.82	1.40722
5390-04-5	4-Pentyn-1-ol		423.15	913.2	1.44142
53910-25-1	Pentostatin	495.15			
5394-83-2	(±)-Camphoric acid	475.15		1186	
5396-24-7	Propyl chloroacetate		433.15	1104.2	1.42612
5396-38-3	1-tert-Butyl-4-methoxybenzene	292.25	496.15	938.32	1.50392
5399-02-0	Heptadecanenitrile	307.15	622.15	831.52	1.44672
54-04-6	3,4,5-Trimethoxybenzeneethanamine	308.65			
54-05-7	Chloroquine	363.15			
54-06-8	2,3-Dihydro-3-hydroxy-1-methyl-1H-indole-5,6-dione				
54-11-5	L-Nicotine	194.15	519.15	1009.72	1.52822
54-25-1	6-Azauridine	431.15			
54-31-9	Furosemide				
54-35-3	Penicillin G procaine			1255.525	
54-36-4	2-Methyl-1,2-di-3-pyridinyl-1-propanone	323.65			
54-47-7	Pyridoxal 5-phosphate	414.15			
54-49-9	Metaraminol				
54-62-6	Aminopterin				
54-71-7	Pilocarpine, monohydrochloride	477.65			
54-85-3	Isoniazid	444.55			
54-91-1	Pipobroman	379.15			
54-95-5	6,7,8,9-Tetrahydro-5H-tetrazolo[1,5-a]azepine	332.65			
54-96-6	3,4-Pyridinediamine	492.45			
540-07-8	Pentyl hexanoate	224.15	498.15	861.225	1.420225
540-08-9	9-Heptadecanone	323.85	524.65	814.048	
540-09-0	12-Tricosanone	342.15		808.669	1.42838
540-10-3	Hexadecyl hexadecanoate	317.05		989.2	1.43987
540-18-1	Pentyl butanoate	200.49	453.15	871.315	1.41232
540-23-8	4-Methylaniline, hydrochloride	517.65	531.15	1193.018	
540-36-3	p-Difluorobenzene	249.65	362.05	1170.12	1.44222
540-37-4	4-Iodoaniline	336.05			
540-38-5	4-Iodophenol	366.65		1857.3112	
540-42-1	Isobutyl propanoate	201.75	409.15	888	1.39732
540-43-2	N-Methyl-2-heptanamine		428.15		
540-47-6	Cyclopropyl methyl ether	163.15	318.15	810.02	1.38022
540-51-2	2-Bromoethanol		415.15	1762.92	1.49152
540-54-5	1-Chloropropane	150.25	319.35	889.92	1.38792
540-61-4	Aminoacetonitrile				
540-63-6	1,2-Ethanedithiol	231.95	417.15	1234.2	1.55902
540-67-0	Ethyl methyl ether	160.15	279.15	725.1	1.34204
540-73-8	1,2-Dimethylhydrazine	264.29	355.15	827.42	1.42092
540-80-7	tert-Butyl nitrite		337.15	867.02	1.3682
540-82-9	Ethyl sulfate			1365.72	1.41052
540-84-1	2,2,4-Trimethylpentane	165.79	372.35	687.825	1.388425
540-88-5	tert-Butyl acetate		371.05	866.52	1.38552
540-92-1	Sodium 2-hydroxy-2-propanesulfonate				
540-97-6	Dodecamethylcyclohexasiloxane	268.95	518.15	967.225	1.40152
5401-94-5	5-Nitro-1H-indazole	481.15			
5406-12-2	4-Methylbenzenepropanal		496.15	999.14	1.52514
5407-87-4	4,6-Dimethyl-2-pyridinamine	334.15	508.15		
5408-86-6	2,3-Dibromobutane	249.15	431.15	1789.322	1.513322
541-01-5	Hexadecamethylheptasiloxane	195.15	559.95	901.22	1.39652
541-02-6	Decamethylcyclopentasiloxane	236.15	486.15	959.32	1.39822
541-05-9	Hexamethylcyclotrisiloxane	336.85	408.25	1120.02	
541-15-1	Carnitine				
541-16-2	Di-tert-butyl malonate	267.15		1418.42	1.418429
541-20-8	Pentamethonium bromide	574.15			
541-22-0	Decamethonium dibromide				
541-25-3	Dichloro(2-chlorovinyl)arsine	273.25	463.15	1888.2	
541-28-6	1-Iodo-3-methylbutane		418.15	1511.82	1.49392
541-31-1	3-Methyl-1-butanethiol		391.45	835.02	1.44122
541-33-3	1,1-Dichlorobutane		388.15	1086.32	1.43552
541-35-5	Butanamide	389.15	504.95	885.012	1.408713
541-41-3	Ethyl chloroformate	192.55	364.15	1135.22	1.39742
541-42-4	Isopropyl nitrite		307.15	868.415	
541-46-8	3-Methylbutanamide	410.15	499.15		
541-47-9	3-Methyl-2-butenoic acid	342.65	470.15	1006.224	
541-50-4	Acetoacetic acid	309.65			
541-53-7	Thioimidodicarbonic diamide				
541-58-2	2,4-Dimethylthiazole		418.75	1056.215	1.50912
541-59-3	1H-Pyrrole-2,5-dione	367.15		1249.3106	
541-69-5	1,3-Benzenediamine, dihydrochloride				
541-73-1	m-Dichlorobenzene	248.35	445.15	1288.42	1.54592
541-85-5	5-Methyl-3-heptanone		432.15		
541-88-8	Chloroacetic anhydride	319.15	476.15	1549.72	
541-91-3	3-Methylcyclopentadecanone		602.15	922.117	1.480217
5414-19-7	Bis(2-bromoethyl) ether			1845.22	1.513127
5414-21-1	5-Bromopentanenitrile			1398.92	1.47802
5416-93-3	4-Methoxyphenyl isocyanate				
54182-58-0	Sucralfate				
5419-55-6	Triisopropyl borate		412.75	825.12	1.37772
542-05-2	3-Oxopentanedioic acid				
542-08-5	Isopropyl 3-oxobutanoate	245.85	459.15	983.52	1.41732
542-10-9	1,1-Ethanediol, diacetate	292.05	441.15	1070.25	1.398525
542-11-0	Aniline hydrobromide	559.15			
542-15-4	Aniline nitrate			1356.4	
542-16-5	Aniline sulfate (2:1)			1377.4	
542-18-7	Chlorocyclohexane	228.15	415.75	1000.2	1.46262
542-28-9	Tetrahydro-2H-pyran-2-one	262.82	501.15	1108.22	1.45032
542-32-5	L-2-Aminohexanedioic acid				
542-37-0	1,1-Dimethylpropyl 3-methylbutanoate		461.15	872.9	
542-46-1	cis-9-Cycloheptadecen-1-one	305.65	616.15		
542-52-9	Dibutyl carbonate		476.15	925.12	1.41172
542-54-1	4-Methylpentanenitrile	222.05	428.15	803.02	1.40592
542-55-2	Isobutyl formate	177.65	371.55	877.62	1.38572
542-56-3	Isobutyl nitrite		341.15	869.922	1.371522
542-58-5	2-Chloroethyl acetate		402.15	1178.2	1.42342
542-59-6	1,2-Ethanediol, monoacetate		461.15	1108.15	
542-69-8	1-Iodobutane	169.65	403.15	1615.42	1.50012
542-76-7	3-Chloropropanenitrile	221.75	448.65	1157.32	1.43602
542-78-9	Malonaldehyde	346.15			
542-81-4	1-Chloro-2-(methylthio)ethane		413.15	1123.2	1.49022
542-85-8	Ethyl isothiocyanate	267.25	413.15	999.02	1.51302
542-88-1	Bis(chloromethyl) ether	231.65	377.15	1323.15	1.43521
542-90-5	Ethyl thiocyanate	187.65	417.15	1007.23	1.468415