CASRN	Chemical	Tm	Tb	rho
1002-88-6	Cobalt(II) stearate	347.15		1130
1002-89-7	Ammonium stearate	295.15		890
10022-31-8	Barium nitrate	863.15		3240
10022-47-6	Ammonium chromic sulfate dodecahydrate			1720
10022-48-7	Lithium dichromate dihydrate			2340
10022-50-1	Nitryl fluoride	107.15	200.75	2.657
10022-68-1	Cadmium nitrate tetrahydrate	332.65		2450
10022-70-5	Sodium hypochlorite pentahydrate	291.15		1600
10024-93-8	Neodymium(III) chloride	1032.15	1873.15	4130
10024-97-2	Nitrous oxide	182.35	184.67	1.799
10025-64-6	Zinc perchlorate hexahydrate			2200
10025-65-7	Platinum(II) chloride			6000
10025-66-8	Radium chloride	1273.15		4900
10025-67-9	Sulfur chloride [SSCl2]	196.15	410.15	1690
10025-68-0	Selenium chloride	188.15		2774
10025-69-1	Tin(II) chloride dihydrate			2710
10025-70-4	Strontium chloride hexahydrate			1960
10025-71-5	Tellurium dichloride	481.15	601.15	6900
10025-73-7	Chromium(III) chloride	1100.15		2760
10025-74-8	Dysprosium(III) chloride	991.15	1803.15	3670
10025-76-0	Europium(III) chloride	896.15		4890
10025-77-1	Iron(III) chloride hexahydrate			1820
10025-78-2	Trichlorosilane	144.95	306.15	1331
10025-82-8	Indium(III) chloride	856.15		4000
10025-83-9	Iridium(III) chloride			5300
10025-85-1	Nitrogen trichloride	233.15	344.15	1653
10025-87-3	Phosphoryl chloride	274.33	378.65	1645
10025-91-9	Antimony(III) chloride	346.55	493.45	3140
10025-93-1	Uranium(III) chloride	1110.15		5510
10025-99-7	Potassium tetrachloroplatinate			3380
10026-00-3	Sodium tetrachloroplatinate(II) tetrahydrate	373.15		
10026-01-4	Osmium(IV) chloride			4380
10026-02-5	Polonium(IV) chloride	573.15	663.15	
10026-03-6	Selenium tetrachloride			2600
10026-04-7	Tetrachlorosilane	204.41	330.8	1500
10026-06-9	Tin(IV) chloride pentahydrate			2040
10026-07-0	Tellurium tetrachloride	497.15	660.15	3000
10026-08-1	Thorium(IV) chloride	1043.15	1194.15	4590
10026-10-5	Uranium(IV) chloride	863.15	1064.15	4720
10026-11-6	Zirconium(IV) chloride			2800
10026-12-7	Niobium(V) chloride	478.95	520.55	2780
10026-13-8	Phosphorus(V) chloride			2100
10026-17-2	Cobalt(II) fluoride	1400.15	1673.15	4460
10026-18-3	Cobalt(III) fluoride	1200.15		3880
10026-20-7	Cobalt(II) potassium sulfate hexahydrate			2220
10026-22-9	Cobalt(II) nitrate hexahydrate	328.15		1880
10026-24-1	Cobalt(II) sulfate heptahydrate			2030
10028-14-5	Nobelium	1100.15		
10028-15-6	Ozone	80.15	161.8	1.962
10028-17-8	Hydrogen-t2	20.62	25.04	0.246
10028-18-9	Nickel(II) fluoride	1653.15		4700
10028-22-5	Iron(III) sulfate			3100
10031-13-7	Lead(II) arsenite			5850
10031-21-7	Lead(II) bromate monohydrate			5530
10031-22-8	Lead(II) bromide	644.15	1165.15	6690
10031-23-9	Radium bromide	1001.15		5790
10031-24-0	Tin(II) bromide	505.15	912.15	5120
10031-25-1	Chromium(III) bromide	1085.15		4680
10031-26-2	Iron(III) bromide			4500
10031-27-3	Tellurium tetrabromide	653.15		4300
10031-30-8	Calcium dihydrogen phosphate monohydrate			2220
10031-43-3	Copper(II) nitrate trihydrate	387.15		2320
10031-45-5	Copper(II) selenate pentahydrate			2560
10031-50-2	Dysprosium(III) sulfate octahydrate	383.15		
10031-52-4	Erbium sulfate octahydrate			3200
10031-54-6	Europium(II) sulfate			4990
10034-81-8	Magnesium perchlorate			2200
10034-85-2	Hydrogen iodide	222.39	237.6	5.228
10034-88-5	Sodium hydrogen sulfate monohydrate			2100
10034-93-2	Hydrazine sulfate	527.15		1378
10034-96-5	Manganese(II) sulfate monohydrate			2950
10034-98-7	Ytterbium(III) sulfate octahydrate			3300
10034-99-8	Magnesium sulfate heptahydrate			1670
10035-04-8	Calcium chloride dihydrate			1850
10035-05-9	Calcium chlorate dihydrate			2711
10035-06-0	Bismuth nitrate pentahydrate			2830
10035-10-6	Hydrogen bromide	186.35	206.77	3.307
10036-47-2	Tetrafluorohydrazine	108.65	199.15	4.251
10038-98-9	Germanium(IV) chloride	221.65	359.7	1880
10039-31-3	Beryllium selenate tetrahydrate			2030
10039-32-4	Sodium hydrogen phosphate dodecahydrate			1500
10039-54-0	Hydroxylamine sulfate	443.15		
10039-55-1	Hydrazine hydroiodide	398.15		
10042-76-9	Strontium nitrate	843.15		2990
10042-88-3	Terbium(III) chloride	855.15		4350
10043-11-5	Boron nitride	3240.15		2180
10043-35-3	Boric acid	444.05		1500
10043-52-4	Calcium chloride	1048.15	2208.15	2150
10043-92-2	Radon	202.15	211.45	9.074
10045-86-0	Iron(III) phosphate dihydrate			2870
10045-87-1	Iron(III) sodium pyrophosphate			1500
10045-94-0	Mercury(II) nitrate	352.15		4300
10048-95-0	Sodium hydrogen arsenate heptahydrate			1870
10048-98-3	Barium hydrogen phosphate			4160
10049-01-1	Bismuth phosphate			6320
10049-03-3	Fluorine perchlorate	105.85	257.15	4.841
10049-04-4	Chlorine dioxide	214.15	284.15	2.757
10049-05-5	Chromium(II) chloride	1097.15	1393.15	2880
10049-06-6	Titanium(II) chloride	1308.15	1773.15	3130
10049-07-7	Rhodium(III) chloride		990.15	5380
10049-08-8	Ruthenium(III) chloride			3100
10049-10-2	Chromium(II) fluoride	1167.15		3790
10049-11-3	Chromium(IV) fluoride	550.15		2890
10049-12-4	Vanadium(III) fluoride	1668.15		3363
10049-14-6	Uranium(IV) fluoride	1309.15	1690.15	6700
10049-16-8	Vanadium(IV) fluoride			3150
10049-17-9	Rhenium(VI) fluoride	291.65	306.95	4060
10049-23-7	Tellurous acid			3000
10049-24-8	Iridium(III) bromide			6820
10049-25-9	Chromium(II) bromide	1115.15		4236
10060-08-9	Calcium chromate dihydrate			2500
10060-09-0	Cadmium selenate dihydrate			3620
10060-10-3	Cerium(IV) fluoride			4770
10060-13-6	Ammonium copper(II) chloride dihydrate			1993
10097-28-6	Silicon monoxide			2180
10099-58-8	Lanthanum chloride	1131.15		3840
10099-60-2	Lanthanum sulfate	1423.15		
10099-66-8	Lutetium chloride	1198.15		3980
10099-74-8	Lead(II) nitrate	743.15		4530
10099-76-0	Lead(II) metasilicate	1037.15		6490
10101-41-4	Calcium sulfate dihydrate			2320
10101-50-5	Sodium permanganate trihydrate			2470
10101-52-7	Zirconium(IV) orthosilicate			4600
10101-53-8	Chromium(III) sulfate			3100
10101-63-0	Lead(II) iodide	683.15		6160
10101-68-5	Manganese(II) sulfate tetrahydrate			2260
10101-88-9	Sodium thiophosphate dodecahydrate	333.15		
10101-89-0	Sodium phosphate dodecahydrate	348.15		1620
10101-91-4	Sodium thioantimonate nonahydrate			1800
10101-97-0	Nickel(II) sulfate hexahydrate			2070
10101-98-1	Nickel(II) sulfate heptahydrate			1980
10102-03-1	Nitrogen pentoxide			2000
10102-15-5	Sodium sulfite heptahydrate			1560
10102-17-7	Sodium thiosulfate pentahydrate			1690
10102-23-5	Sodium selenate decahydrate			1610
10102-24-6	Lithium metasilicate	1474.15		2520
10102-25-7	Lithium sulfate monohydrate			2060
10102-34-8	Magnesium pyrophosphate trihydrate			2560
10102-40-6	Sodium molybdate dihydrate			3500
10102-43-9	Nitric oxide	109.55	121.41	1.226
10102-44-0	Nitrogen dioxide			1.88
10102-45-1	Thallium(I) nitrate	479.15		5550
10102-49-5	Iron(III) arsenate dihydrate			3180
10102-68-8	Calcium iodide	1056.15	1373.15	3960
10102-71-3	Sodium aluminum sulfate dodecahydrate	333.15		1610
10102-75-7	Calcium bromate	453.15		
10108-64-2	Cadmium chloride	841.15	1237.15	4080
10112-91-1	Mercury(I) chloride			7160
10118-76-0	Calcium permanganate			2400
10124-36-4	Cadmium sulfate	1273.15		4690
10124-37-5	Calcium nitrate	834.15		2500
10124-41-1	Calcium thiosulfate hexahydrate			1870
10124-43-3	Cobalt(II) sulfate			3710
10124-48-8	Mercury(II) amide chloride			5380
10125-13-0	Copper(II) chloride dihydrate			2510
10137-74-3	Calcium chlorate	613.15		
10138-41-7	Erbium chloride	1049.15		4100
10138-52-0	Gadolinium(III) chloride	875.15		4520
10138-62-2	Holmium chloride	993.15	1773.15	3700
10139-47-6	Zinc iodide	723.15	898.15	4740
10141-05-6	Cobalt(II) nitrate			2490
10143-38-1	Dysprosium(III) nitrate pentahydrate	361.75		
10170-69-1	Manganese carbonyl	427.15		1750
10179-73-4	Iron(II) orthosilicate			4300
10190-55-3	Lead(II) molybdate	1333.15		6700
10192-29-7	Ammonium chlorate			1800
10192-30-0	Ammonium hydrogen sulfite			2030
10196-18-6	Zinc nitrate hexahydrate			2067
102-54-5	Ferrocene	445.65	522.15	
10210-64-7	Beryllium 2,4-pentanedioate	381.15	543.15	1168
10210-68-1	Cobalt carbonyl			1780
10213-09-9	Vanadyl dichloride			2880
10213-10-2	Sodium tungstate dihydrate			3250
10214-39-8	Lead(II) borate monohydrate			5600
10233-88-2	Sodium gold thiosulfate dihydrate			3090
10241-03-9	Zirconium(III) chloride	900.15		3050
10241-05-1	Molybdenum(V) chloride	467.15	541.15	2930
10294-26-5	Silver(I) sulfate	933.15		5450
10294-27-6	Gold(I) bromide			8200
10294-29-8	Gold(I) chloride			7600
10294-31-2	Gold(I) iodide			8250
10294-33-4	Boron tribromide	227.15	364.45	2600
10294-34-5	Boron trichloride	165.85	285.65	4.789
10294-38-9	Barium chlorate monohydrate			3179
10294-39-0	Barium perchlorate trihydrate			2740
10294-40-3	Barium chromate(VI)	1653.15		4500
10294-42-5	Cerium(IV) sulfate tetrahydrate			3910
10294-44-7	Mercury(I) chlorate			6409
10294-46-9	Copper(II) perchlorate hexahydrate	355.15		2220
10294-47-0	Lead(II) chlorate			3900
10294-48-1	Dichlorine heptoxide	181.65	355.15	1900
10294-50-5	Cobalt(II) phosphate octahydrate			2770
10294-54-9	Cesium sulfate	1278.15		4240
10294-60-7	Ammonium hydrogen selenate			2162
10294-62-9	Lanthanum sulfate nonahydrate			2820
10294-70-9	Tin(II) iodide	593.15	987.15	5280
10325-94-7	Cadmium nitrate	633.15		3600
10326-26-8	Barium bromate monohydrate			3990
10326-27-9	Barium chloride dihydrate			3097
10326-28-0	Cadmium perchlorate hexahydrate			2370
10340-06-4	Carbon sulfide telluride	219.15		
10361-37-2	Barium chloride	1234.15	1833.15	3900
10361-43-0	Bismuth hydroxide			4962
10361-46-3	Bismuth oxynitrate			4930
10361-79-2	Praseodymium(III) chloride	1059.15		4000
10361-82-7	Samarium(III) chloride	955.15		4460
10361-84-9	Scandium chloride	1240.15		2400
10361-91-8	Ytterbium(III) chloride	1127.15		
10361-92-9	Yttrium chloride	994.15	1755.15	2610
10361-95-2	Zinc chlorate			2150
10377-48-7	Lithium sulfate	1133.15		2210
10377-51-2	Lithium iodide	742.15	1444.15	4060
10377-52-3	Lithium phosphate	1478.15		2460
10377-58-9	Magnesium iodide	907.15		4430
10377-60-3	Magnesium nitrate			2300
10377-62-5	Magnesium permanganate hexahydrate			2180
10377-66-9	Manganese(II) nitrate hexahydrate			1800
10377-93-2	Manganese(II) nitrate			2200
10381-37-0	Thorium(IV) sulfate nonahydrate			2800
10405-27-3	Difluoramine	157.15	250.15	2.167
10476-81-0	Strontium bromide	930.15		4216
10476-85-4	Strontium chloride	1147.15	1523.15	3052
10476-86-5	Strontium iodide	811.15		4550
10534-89-1	Cobalt(III) hexammine chloride			1710
10544-72-6	Nitrogen tetroxide	263.85	294.3	1452
10544-73-7	Nitrogen trioxide	172.05		1420
10545-99-0	Sulfur dichloride	151.15	332.75	1620
10553-31-8	Barium bromide	1130.15	2108.15	4781
10567-69-8	Barium iodate			5230
10580-52-6	Vanadium(II) chloride	1623.15		3230
10588-01-9	Sodium dichromate	630.15		
10599-90-3	Chloramine	207.15		
1066-33-7	Ammonium hydrogen carbonate			1586
1068-22-0	Ammonium O,O-diethyldithiophosphate	438.15		
1070-75-3	Lithium carbide			1650
1072-35-1	Lead(II) stearate	373.15		1400
107782-11-6	Fluorine tetroxide	82.15		
109-63-7	Boron trifluoride etherate	212.75	398.65	1125.25
11071-61-7	Octadecaborane(22)	453.15		
1111-67-7	Copper(I) thiocyanate	1357.15		2850
11120-25-5	Ammonium tungstate(VI)			2300
11121-16-7	Aluminum borate	1323.15		
11126-81-1	Aluminum bromate nonahydrate	335.15		
1113-38-8	Ammonium oxalate			1500
1184-65-2	Trichlorogermane	202.15	348.45	1930
12002-28-7	Tetracarbonyldihydroiron	203.15		
12002-61-8	Actinium oxide	2250.15		9190
12002-99-2	Silver(I) telluride	1228.15		8400
12003-63-3	Potassium aluminate trihydrate			2130
12003-78-0	Nickel aluminide (NiAl)	1911.15		
12004-04-5	Barium aluminate	2100.15		
12004-06-7	Beryllium aluminate			3650
12004-29-4	Aluminum phosphate trihydroxide			2700
12004-39-6	Aluminum titanate	2133.15		
12004-50-1	Aluminum zirconium	1918.15		
12004-76-1	Tantalum aluminide	1673.15		7020
12005-21-9	Yttrium aluminum oxide			4500
12005-67-3	Americium(IV) oxide			11680
12005-69-5	Boron arsenide			5220
12005-75-3	Copper arsenide	1100.15		
12006-15-4	Cadmium arsenide	994.15		6250
12006-40-5	Zinc arsenide	1288.15		5528
12006-77-8	Cobalt boride (CoB)	1733.15		7250
12006-79-0	Chromium boride (CrB)	2373.15		6100
12006-80-3	Chromium boride (Cr2B)	2148.15		
12006-84-7	Iron boride (FeB)	1931.15		7000
12006-86-9	Iron boride (Fe2B)	1662.15		7300
12006-99-4	Molybdenum boride (Mo2B)	2273.15		9200
12007-00-0	Nickel boride (NiB)	1308.15		7130
12007-01-1	Nickel boride (Ni2B)	1398.15		7900
12007-02-2	Nickel boride (Ni3B)	1439.15		8170
12007-07-7	Tantalum boride	2313.15		14200
12007-09-9	Tungsten boride	3073.15		15200
12007-10-2	Tungsten boride (W2B)	3013.15		16000
12007-16-8	Chromium boride [CrB2]	2473.15		5220
12007-23-7	Hafnium boride	3373.15		10500
12007-25-9	Magnesium diboride			2570
12007-29-3	Niobium boride [NbB2]	3323.15		6970
12007-33-9	Boron sulfide	836.15		1700
12007-34-0	Scandium boride	2523.15		3170
12007-35-1	Tantalum boride [TaB2]	3373.15		11200
12007-36-2	Uranium boride [UB2]	2703.15		12700
12007-37-3	Vanadium boride [VB2]	2723.15		
12007-38-4	Chromium boride [Cr5B3]	2173.15		6100
12007-60-2	Lithium tetraborate	1190.15		
12007-81-7	Silicon tetraboride			2400
12007-84-0	Uranium boride [UB4]	2803.15		9320
12007-97-5	Molybdenum boride [Mo2B5]	2483.15		7200
12007-98-6	Tungsten boride [W2B5]	2643.15		11000
12007-99-7	Calcium boride	2508.15		2490
12008-02-5	Cerium boride	2823.15		4870
12008-05-8	Europium boride	2873.15		4910
12008-06-9	Gadolinium boride	2783.15		5310
12008-19-4	Hexaborane(12)	190.85	358.15	
12008-21-8	Lanthanum boride	2988.15		4760
12008-23-0	Neodymium boride	2883.15		4930
12008-27-4	Praseodymium boride	2883.15		4840
12008-29-6	Boron silicide	2253.15		
12008-30-9	Samarium boride	2853.15		5070
12008-32-1	Yttrium boride	2873.15		3720
12009-14-2	Barium niobate	1728.15		5440
12009-18-6	Barium stannate			7240
12009-21-1	Barium zirconate	2773.15		5520
12011-67-5	Iron carbide	1500.15		7694
12011-97-1	Molybdenum carbide (MoC)	2850.15		
12011-99-3	Niobium carbide (Nb2C)	3353.15		7800
12012-16-7	Thorium carbide	2773.15		10600
12012-17-8	Vanadium carbide (V2C)	2440.15		
12012-32-7	Cerium carbide	2523.15		5470
12012-35-0	Chromium carbide	2168.15		6680
12013-10-4	Cobalt disulfide			4300
12013-21-7	Magnesium molybdate	1333.15		2200
12013-47-7	Calcium zirconate	2823.15		
12013-55-7	Calcium silicide (CaSi)	1597.15		2390
12013-56-8	Calcium silicide [CaSi2]	1313.15		2500
12013-57-9	Calcium telluride			4870
12013-69-3	Calcium plumbate			5710
12013-82-0	Calcium nitride	1468.15		2670
12014-14-1	Cadmium titanate			6500
12014-28-7	Cadmium phosphide	973.15		5960
12014-29-8	Cadmium antimonide	729.15		6920
12014-82-3	Cerium(II) sulfide	2718.15		5900
12014-85-6	Cerium silicide	1693.15		5310
12014-93-6	Cerium(III) sulfide	2723.15		5020
12015-73-5	Calcium fluorophosphate	1923.15		3201
12017-01-5	Cobalt(II) titanate			5000
12017-08-2	Cobalt(II) orthosilicate	1618.15		4630
12017-12-8	Cobalt silicide	1599.15		4900
12017-13-9	Cobalt(II) telluride			8800
12017-38-8	Cobalt(III) titanate			5100
12018-01-8	Chromium(IV) oxide			4890
12018-09-6	Chromium silicide [CrSi2]	1763.15		4910
12018-10-9	Copper(II) chromite			5400
12018-19-8	Zinc chromite			5290
12018-22-3	Chromium(III) sulfide			3800
12018-34-7	Chromium(II,III) oxide			6100
12018-36-9	Chromium silicide (Cr3Si)	2043.15		6400
12018-61-0	Cesium superoxide	705.15		3770
12019-11-3	Copper phosphide	1173.15		4200
12019-23-7	Copper(II) telluride			7090
12019-52-2	Copper(I) telluride	1400.15		4600
12019-88-4	Dysprosium nitride			9930
12020-14-3	Zirconium carbide	3805.15		6730
12020-21-2	Erbium nitride			10600
12020-28-9	Erbium silicide			7260
12020-39-2	Erbium telluride	1486.15		7110
12020-58-5	Europium nitride			8700
12020-65-4	Europium(II) sulfide			5700
12020-66-5	Europium(II) selenide			6450
12020-69-8	Europium(II) telluride	1799.15		6480
12021-68-0	Cobalt(II) hexafluorosilicate hexahydrate			2087
12022-95-6	Iron silicide	1683.15		6100
12022-99-0	Iron disilicide	1493.15		4740
12023-53-9	Iron phosphide (Fe3P)	1373.15		6740
12024-10-1	Gallium(II) sulfide	1238.15		3860
12024-11-2	Gallium(II) selenide	1233.15		5030
12024-14-5	Gallium(II) telluride	1097.15		5440
12024-20-3	Gallium suboxide			4770
12024-21-4	Gallium(III) oxide	2080.15		6000
12024-22-5	Gallium(III) sulfide	1363.15		3700
12024-24-7	Gallium(III) selenide	1210.15		4920
12024-27-0	Gallium(III) telluride	1063.15		5570
12024-81-6	Gadolinium(II) selenide	2443.15		8100
12025-19-3	Sodium germanate	1356.15		3310
12025-32-0	Germanium(II) sulfide	931.15		4100
12025-34-2	Germanium(IV) sulfide	1113.15		3010
12025-39-7	Germanium(II) telluride	997.15		6160
12026-06-1	Thallium(I) hydroxide			7440
12027-06-4	Ammonium iodide			2514
12029-81-1	Holmium nitride			10600
12029-98-0	Iodine pentoxide			4980
12030-14-7	Indium(II) sulfide	965.15		5200
12030-24-9	Indium(III) sulfide	1323.15		4450
12030-49-8	Iridium(IV) oxide			11700
12030-51-2	Iridium(IV) sulfide			9300
12030-85-2	Potassium niobate	1373.15		4640
12030-88-5	Potassium superoxide	808.15		2160
12030-97-6	Potassium titanate	1788.15		3100
12031-30-0	Lanthanum monosulfide	2573.15		5610
12031-49-1	Lanthanum sulfide	2383.15		4900
12031-63-9	Lithium niobate	1513.15		4300
12031-66-2	Lithium tantalate	1923.15		
12031-80-0	Lithium peroxide			2310
12031-82-2	Lithium titanate	1598.15		
12032-20-1	Lutetium oxide	2763.15	4253.15	9410
12032-30-3	Magnesium metatitanate	1838.15		3850
12032-31-4	Magnesium zirconate	2333.15		4230
12032-36-9	Magnesium sulfide	2499.15		2680
12032-52-9	Magnesium orthotitanate	2113.15		3530
12032-74-5	Manganese(II) titanate	1633.15		4550
12032-78-9	Manganese phosphide (MnP)	1420.15		5490
12032-82-5	Manganese antimonide (MnSb)	1113.15		6900
12032-88-1	Manganese(II) telluride	1423.15		6000
12032-97-2	Manganese antimonide (Mn2Sb)	1221.15		7000
12033-19-1	Molybdenum nitride (MoN)	2023.15		9200
12033-31-7	Molybdenum nitride (Mo2N)			9460
12033-54-4	Plutonium nitride	2823.15		14400
12033-62-4	Tantalum nitride	3363.15		13700
12033-64-6	Terbium nitride			9550
12033-65-7	Thorium nitride	3093.15		11600
12033-72-6	Tungsten nitride (W2N)			17800
12033-82-8	Strontium nitride	1473.15		
12033-83-9	Uranium nitride [U2N3]			11300
12033-88-4	Nitrogen selenide			4200
12033-89-5	Silicon nitride [Si3N4]	2173.15		3170
12034-09-2	Sodium niobate	1695.15		4550
12034-12-7	Sodium superoxide	825.15		2200
12034-57-0	Niobium(II) oxide	2210.15		7300
12034-59-2	Niobium(IV) oxide	2174.15		5900
12034-66-1	Niobium phosphide			6500
12034-77-4	Niobium(IV) selenide			6300
12034-80-9	Niobium silicide	2223.15		5700
12034-83-2	Niobium(IV) telluride			7600
12034-88-7	Lead(II) niobate	1616.15		6600
12034-89-8	Strontium niobate	1498.15		5110
12035-32-4	Neodymium(III) sulfide	2480.15		5460
12035-35-7	Neodymium(III) telluride	1650.15		7000
12035-39-1	Nickel(II) titanate			5000
12035-52-8	Nickel antimonide	1420.15		8740
12035-64-2	Nickel phosphide	1373.15		7330
12035-72-2	Nickel subsulfide	1062.15		5870
12035-79-9	Neptunium(IV) oxide	2820.15		11100
12035-82-4	Platinum(II) oxide			14100
12035-83-5	Plutonium(II) oxide			14000
12035-98-2	Vanadium(II) oxide	2063.15		5758
12036-02-1	Osmium(IV) oxide			11400
12036-09-8	Rhenium(IV) oxide			11400
12036-10-1	Ruthenium(IV) oxide			7050
12036-14-5	Tantalum(IV) oxide			10000
12036-21-4	Vanadium(IV) oxide	1818.15		4339
12036-22-5	Tungsten(IV) oxide		2003.15	10800
12036-32-7	Praseodymium(III) oxide	2456.15	4033.15	6900
12036-34-9	Plutonium(III) oxide	2358.15		10500
12036-35-0	Rhodium(III) oxide			8200
12036-39-4	Strontium zirconate	2873.15		
12036-41-8	Terbium(III) oxide	2576.15		7910
12036-44-1	Thulium(III) oxide	2614.15	4218.15	8600
12037-15-9	Uranium(IV,V) oxide			11200
12037-65-9	Titanium phosphide	2263.15		4080
12037-80-8	Zirconium phosphide			5100
12037-82-0	Phosphorus heptasulfide	581.15	796.15	2190
12038-12-9	Praseodymium(III) telluride	1773.15		7000
12038-13-0	Praseodymium(III) sulfide	2038.15		5100
12038-20-9	Platinum(II) sulfide			10250
12038-21-0	Platinum(IV) sulfide			7850
12038-63-0	Rhenium(IV) sulfide			7600
12038-66-3	Rhenium(IV) silicide	2273.15		
12038-67-4	Rhenium(VII) sulfide			4870
12039-07-5	Titanium(II) sulfide	2200.15		3850
12039-13-3	Titanium(IV) sulfide			3370
12039-15-5	Zirconium(IV) sulfide	1823.15		3870
12039-16-6	Titanium(III) sulfide			3560