CASRN	Name	Tm	Tb	rho	RI
115-07-1	Propene	87.85	225.55		
115-10-6	Dimethyl ether	131.66	248.35		
115-11-7	Isobutene	132.45	266.15		
115-17-3	Tribromoacetaldehyde		446.15	2664.925	1.59392
115-18-4	2-Methyl-3-buten-2-ol	232.15	372.45	822	
115-19-5	2-Methyl-3-butyn-2-ol	276.15	378.85	861.82	1.42072
115-20-8	2,2,2-Trichloroethanol	292.15	424.15		1.48612
115-21-9	Trichloroethylsilane	167.55	371.85	1237.32	1.42562
115-22-0	3-Hydroxy-3-methyl-2-butanone		421.55	952.62	
115-24-2	Sulfonmethane	398.95			
115-25-3	Perfluorocyclobutane	232.99	267.24		
115-26-4	Dimefox			1115.12	1.42672
115-27-5	Chlorendic anhydride	508.15			
115-28-6	Chlorendic acid	505.15			
115-29-7	Endosulfan	379.15		1745.2	
115-31-1	Isobornyl thiocyanoacetate			1146.525	1.51225
115-32-2	1,1-Bis(4-chlorophenyl)-2,2,2-trichloroethanol	348.25			
115-37-7	Thebaine	466.15		1305.2	
115-38-8	Mephobarbital	449.15			
115-39-9	Bromophenol Blue				
115-40-2	Bromocresol Purple	514.65			
115-43-5	5-Allyl-5-phenyl-2,4,6(1H,3H,5H)-pyrimidinetrione	429.65			
115-44-6	Talbutal	382.15			
115-53-7	Sinomenine	435.15			
115-56-0	5-Ethyl-5-(2-methylallyl)-2-thiobarbituric acid	433.65			
115-61-7	Tachysterol				
115-63-9	Hexocyclium methyl sulfate	478.15			
115-67-3	Paramethadione			1121.25	1.44925
115-69-5	2-Amino-2-methyl-1,3-propanediol	384.08			
115-70-8	2-Amino-2-ethyl-1,3-propanediol	310.65		1099.2	1.4902
115-71-9	α-Santalol		574.65	967.92	1.50232
115-76-4	2,2-Diethyl-1,3-propanediol	334.45	517.15	1050.2	1.457425
115-77-5	Pentaerythritol	531.15			1.548
115-80-0	1,1,1-Triethoxypropane		444.15		1.400025
115-84-4	2-Butyl-2-ethyl-1,3-propanediol	316.15	542.15	927.5	1.458725
115-86-6	Triphenyl phosphate	322.54		1205.55	
115-88-8	Octyl diphenyl phosphate			1092.5	
115-90-2	Fensulfothion			1202.2	
115-95-7	Linalyl acetate		494.15	895.2	1.44602
115-96-8	Tris(2-chloroethyl) phosphate		603.15	1392.5	1.47212
1151-15-1	2-(4-Methoxybenzoyl)benzoic acid	419.15			
1152-61-0	N-[(Phenylmethoxy)carbonyl]-L-aspartic acid	390.15			
1153-05-5	Triphenylarsine oxide	465.15	597.15		
1154-59-2	3,3',4',5-Tetrachlorosalicylanilide	434.15			
1155-00-6	Bis(2-nitrophenyl) disulfide	471.65			
1156-19-0	Tolazamide	445.15			
1159-53-1	4-Methyl-N,N-bis(4-methylphenyl)aniline	388.15			
116-01-8	Ethoate-methyl	340.15			
116-06-3	Aldicarb	374.25		1195.25	
116-09-6	1-Hydroxy-2-propanone	256.15	418.65	1080.52	1.42952
116-11-0	2-Methoxy-1-propene		308.85	737.22	
116-14-3	Tetrafluoroethene	142.01	197.15		
116-15-4	Perfluoropropene	116.65	242.95		
116-16-5	Hexachloroacetone	272.15	476.15	1743.412	1.51122
116-17-6	Triisopropyl phosphite			906.32	1.408525
116-26-7	Safranal			973.419	1.528119
116-29-0	Tetradifon	420.05		1151.2	
116-31-4	Retinal (all trans)	337.15			
116-38-1	Edrophonium chloride	435.15			
116-43-8	Succinylsulphathiazole	466.65			
116-44-9	4-Amino-N-pyrazinylbenzenesulfonamide	524.15			
116-52-9	N,N'-Bis(2,2,2-trichloro-1-hydroxyethyl)urea	469.15			
116-54-1	Methyl dichloroacetate	221.25	400.15	1377.42	1.44292
116-58-5	11,17,20,21-Tetrahydroxypregn-4-en-3-one, (11β,20R)-				
116-63-2	4-Amino-3-hydroxy-1-naphthalenesulfonic acid				
116-71-2	Anthra[9,1,2-cde]benzo[rst]pentaphene-5,10-dione				
116-81-4	1-Amino-4-bromo-9,10-dihydro-9,10-dioxo-2-anthracenesulfonic acid				
116-85-8	1-Amino-4-hydroxy-9,10-anthracenedione	489.65			
1163-19-5	Decabromobiphenyl ether	578.15			
1165-48-6	Dimefline	382.65			
1166-52-5	Dodecyl 3,4,5-trihydroxybenzoate	369.65			
116724-11-9	sec-Butyl isothiocyanate, (±)-		432.65	944.12	
116783-23-4	sec-Butyl methyl ether		332.25	741.52	1.368025
116836-32-9	sec-Butyl pentanoate		447.65	860.52	1.40702
116908-82-8	DL-α-Rhamnose	424.15			
117-08-8	Tetrachlorophthalic anhydride	527.65		1492.75	
117-10-2	1,8-Dihydroxy-9,10-anthracenedione	466.15			
117-11-3	1-Amino-5-chloro-9,10-anthracenedione	485.15			
117-12-4	1,5-Dihydroxy-9,10-anthracenedione	553.15			
117-14-6	9,10-Dihydro-9,10-dioxo-1,5-anthracenedisulfonic acid				
117-18-0	1,2,4,5-Tetrachloro-3-nitrobenzene	373.55	577.15	1744.25	
117-27-1	2-Nitro-1,1-bis(p-chlorophenyl)propane	355.15			
117-34-0	α-Phenylbenzeneacetic acid	420.41		1257.15	
117-37-3	2-(4-Methoxyphenyl)-1H-indene-1,3(2H)-dione	429.65			
117-39-5	Quercetin	595.15			
117-62-4	2-Amino-1,5-naphthalenedisulfonic acid	573.15			
117-73-7	Raunescine	438.15			
117-78-2	9,10-Dihydro-9,10-dioxo-2-anthracenecarboxylic acid	564.15			
117-79-3	2-Amino-9,10-anthracenedione	577.65			
117-80-6	2,3-Dichloro-1,4-naphthalenedione	469.55			
117-81-7	Bis(2-ethylhexyl) phthalate	218.15	657.15	981.25	1.48532
117-82-8	Bis(2-methoxyethyl) phthalate	213.15		1159.62	
117-83-9	Bis(2-butoxyethyl) phthalate		682.15		
117-84-0	Dioctyl phthalate	298.15	688.15		
117-89-5	Trifluoperazine				
117-92-0	Quinaldine Red				
117-93-1	N-(2-Hydroxy-1-naphthyl)acetamide				
117-96-4	Diatrizoic acid	573.15			
117-99-7	(2-Hydroxyphenyl)phenylmethanone	308.15			
1170-76-9	Benzyloxycarbonylglycyl-L-phenylalanine	399.15			
1174-72-7	Phenyl silicate	322.15	690.15	1141.26	
1176-74-5	3',3'',5',5''-Tetrabromophenolphthalein ethyl ester	483.15			
118-00-3	Guanosine				
118-08-1	Hydrastine	405.15			
118-10-5	Cinchonine	538.15			
118-12-7	1,3,3-Trimethyl-2-methyleneindoline		517.15		
118-29-6	N-(Hydroxymethyl)phthalimide	414.65			
118-31-0	1-Naphthalenemethanamine		565.15	1095.82	
118-32-1	7-Hydroxy-1,3-naphthalenedisulfonic acid				
118-34-3	Syringin	465.15			
118-41-2	3,4,5-Trimethoxybenzoic acid	444.15			
118-44-5	N-Ethyl-1-naphthalenamine		578.15	1065.215	1.647715
118-46-7	8-Amino-2-naphthol	479.15			
118-48-9	2H-3,1-Benzoxazine-2,4(1H)-dione				
118-52-5	1,3-Dichloro-5,5-dimethyl hydantoin	405.15		1520	
118-55-8	Phenyl salicylate	314.97		1261.43	
118-58-1	Benzyl salicylate		593.15	1179.92	1.58052
118-60-5	2-Ethylhexyl 2-hydroxybenzoate			1010	
118-61-6	Ethyl salicylate	318.15		1132.62	1.52962
118-69-4	2,6-Dichlorotoluene	298.95	467.15	1268.62	1.55072
118-71-8	3-Hydroxy-2-methyl-4H-pyran-4-one	434.65			
118-74-1	Hexachlorobenzene	503.15	598.15	2044.23	1.569123
118-75-2	2,3,5,6-Tetrachloro-2,5-cyclohexadiene-1,4-dione	571.45			
118-78-5	5-Amino-2,4,6(1H,3H,5H)-pyrimidinetrione	673.15			
118-79-6	2,4,6-Tribromophenol	368.15	559.15	2552	
118-82-1	4,4'-Methylenebis[2,6-di-tert-butylphenol]	427.15			
118-90-1	o-Toluic acid	376.55	532.65	1062.115	1.512115
118-91-2	2-Chlorobenzoic acid	413.55	547.15	1544.2	
118-92-3	Aniline-2-carboxylic acid	417.75		1412.2	
118-93-4	1-(2-Hydroxyphenyl)ethanone	275.65	491.15	1130.72	1.55842
118-96-7	2,4,6-Trinitrotoluene	354.05	623.15	1654.25	
1184-58-3	Chlorodimethylaluminum	228.15	399.15	996	
1184-60-7	2-Fluoropropene		249.15		
1184-78-7	Trimethylamine oxide	529.15			
1185-33-7	2,2-Dimethyl-1-butanol	258.15	410.15	828.32	1.42082
1185-39-3	2,2-Dimethylpentanoic acid			918.92	
1185-55-3	Trimethoxymethylsilane		375.65	954.82	1.36962
1185-81-5	Dibutylbis(dodecylthio)stannane			1052	
1186-53-4	2,2,3,4-Tetramethylpentane	151.85	406.15	738.92	1.41472
1187-03-7	Tetraethylurea		481.15	919.2	1.44742
1187-42-4	cis-2,3-Diamino-2-butenedinitrile	451.65		1412	
1187-58-2	N-Methylpropanamide	242.25	480.15	930.525	1.434525
1188-01-8	Glycylalanine				
1188-33-6	1,1-Diethoxy-N,N-dimethylmethanamine		402.15	859.25	1.40072
1188-37-0	N-Acetylglutamic acid	472.15			
1189-08-8	1,3-Butanediol dimethacrylate		563.15		1.449525
1189-11-3	N-Phospho-L-arginine	450.15			
1189-71-5	Sulfuryl chloride isocyanate	229.15	380.15	1626.25	1.44672
1189-85-1	tert-Butyl chromate	268.15			
1189-99-7	2,5,5-Trimethylheptane		426.15	736.225	1.41492
119-06-2	Ditridecyl phthalate			952.25	
119-13-1	δ-Tocopherol				
119-15-3	4-[(2,4-Dinitrophenyl)amino]phenol	468.65			
119-20-0	Rhizopterin	573.15			
119-26-6	(2,4-Dinitrophenyl)hydrazine	474.75			
119-27-7	1-Methoxy-2,4-dinitrobenzene	369.05		1336.4131	1.54615
119-28-8	8-Amino-2-naphthalenesulfonic acid				
119-32-4	4-Methyl-3-nitroaniline	351.15			
119-33-5	4-Methyl-2-nitrophenol	309.65		1239.92	1.57444
119-34-6	4-Amino-2-nitrophenol	404.15			
119-36-8	Methyl salicylate	264.65	495.75	1181.25	1.5352
119-38-0	Isolan			1072	
119-41-5	Efloxate	396.85			
119-42-6	2-Cyclohexylphenol	327.85			
119-44-8	Xanthopterin			1559.25	
119-47-1	Bis(2-hydroxy-3-tert-butyl-5-methylphenyl)methane	404.15			
119-48-2	Dimorpholamine	314.65			
119-51-7	1-Phenyl-1,2-propanedione, 2-oxime	388.15			
119-52-8	4,4'-Dimethoxybenzoin	382.15			
119-56-2	4-Chloro-α-phenylbenzenemethanol	332.15			
119-58-4	Bis(4-dimethylaminophenyl)methanol	375.15			
119-59-5	Bis(4-aminophenyl) sulfoxide				
119-60-8	Dicyclohexylmethanone	330.15		986	1.48602
119-61-9	Benzophenone	321.15	579.05	1111.18	1.607719
119-64-2	1,2,3,4-Tetrahydronaphthalene	237.39	480.35	964.525	1.54132
119-65-3	Isoquinoline	299.61	516.35	1091.03	1.61482
119-67-5	2-Formylbenzoic acid	373.65		1404.25	
119-68-6	2-(Methylamino)benzoic acid	453.65			
119-75-5	2-Nitro-N-phenylaniline	348.05		1366.02	
119-80-2	2,2'-Dithiobisbenzoic acid	562.65			
119-84-6	3,4-Dihydro-2H-1-benzopyran-2-one	298.15	545.15	1169.18	1.55632
119-90-4	3,3'-Dimethoxybenzidine	410.15			
119-91-5	2,2'-Biquinoline	469.15			
119-93-7	o-Tolidine	404.15			
1190-22-3	1,3-Dichlorobutane		406.85	1115.82	1.44452
1190-39-2	Dibutyl malonate	178.15	526.15	982.42	1.42622
1190-63-2	Hexadecyl stearate	329.95			1.44107
1190-76-7	cis-2-Butenenitrile		379.15		
1190-83-6	2,2,6-Trimethylheptane	168.15	422.15	720.025	1.40782
1191-04-4	2-Hexenoic acid	309.65	489.65	965.2	1.44604
1191-08-8	1,4-Butanedithiol	219.25	468.65	1002.1	1.52902
1191-15-7	Diisobutylaluminum hydride				
1191-25-9	6-Hydroxyhexanoic acid				
1191-41-9	Ethyl cis,cis,cis-9,12,15-octadecatrienoate		630.15	891.92	1.46942
1191-43-1	1,6-Hexanedithiol	252.15	510.15	988.625	1.51102
1191-80-6	Mercury(II) oleate				
1191-95-3	Cyclobutanone	222.25	371.95	954.7	1.42152
1191-96-4	Ethylcyclopropane	123.75	309.15	679.025	1.37862
1191-99-7	2,3-Dihydrofuran		327.65	927.25	1.42392
1192-18-3	cis-1,2-Dimethylcyclopentane	219.48	372.65	768.025	1.42222
1192-28-5	Cyclopentanone oxime	330.95	469.15		
1192-30-9	2-(Bromomethyl)tetrahydrofuran		443.15	1467.92	1.48502
1192-37-6	Methylenecyclohexane	168.45	376.15	807.42	1.45232
1192-62-7	1-(2-Furanyl)ethanone	301.65	448.15	1098.2	1.50172
1192-88-7	1-Cyclohexene-1-carboxaldehyde			969.42	1.50052
1193-02-8	4-Aminobenzenethiol	319.15			
1193-18-6	3-Methyl-2-cyclohexen-1-one	252.15	474.15	969.32	1.494752
1193-47-1	2,2-Dimethylcyclohexanone	252.65	445.15	914.52	1.44862
1193-81-3	α-Methylcyclohexanemethanol		462.15	928.25	1.46562
1193-82-4	(Methylsulfinyl)benzene	305.15	536.65		1.58852
1194-02-1	4-Fluorobenzonitrile	307.95	461.95	1107.055	1.492555
1194-65-6	2,6-Dichlorobenzonitrile	416.75	543.15		
1194-98-5	2,5-Dihydroxybenzaldehyde	373.15			
119446-68-3	Difenoconazole	349.15			
1195-32-0	1-Methyl-4-(1-methylvinyl)benzene	253.15	459.15	893.623	1.528323
1195-42-2	Cyclohexylisopropylamine			859.25	1.44802
1196-57-2	2(1H)-Quinoxalinone	542.55	634.15		
1197-18-8	trans-4-(Aminomethyl)cyclohexanecarboxylic acid	522.15			
1197-37-1	4-Ethoxy-1,2-benzenediamine	344.65	568.15		
1197-55-3	4-Aminobenzeneacetic acid	468.15			
1198-37-4	2,4-Dimethylquinoline		540.15	1061.115	1.60752
1198-55-6	3,4,5,6-Tetrachloro-1,2-benzenediol	467.15			
1198-59-0	1,2-Dichloro-3,4,5,6-tetrafluorobenzene		430.85		
120-07-0	N-Phenyl-N,N-diethanolamine	330.15		1201.6	
120-12-7	Anthracene	489.15	614.45	1282.5	
120-14-9	3,4-Dimethoxybenzaldehyde	316.15	554.15		
120-15-0	1,2,3,4-Tetrahydro-6-methoxyquinoline	315.65	557.15		1.57182
120-18-3	2-Naphthalenesulfonic acid	364.15		1441.25	
120-20-7	3,4-Dimethoxybenzeneethanamine				1.54642
120-21-8	4-(Diethylamino)benzaldehyde	314.15			
120-22-9	N,N-Diethyl-4-nitrosoaniline	360.65		1241.5	
120-23-0	(2-Naphthyloxy)acetic acid	429.35			
120-25-2	4-Ethoxy-3-methoxybenzaldehyde	337.65			
120-29-6	Tropine	336.15	506.15	1016.1	1.48111
120-32-1	Clorophene	321.65		1185.58	
120-36-5	2-(2,4-Dichlorophenoxy)propanoic acid	389.75			
120-40-1	N,N-Bis(2-hydroxyethyl)dodecanamide	311.85			
120-43-4	Ethyl 1-piperazinecarboxylate		510.15		1.476025
120-46-7	1,3-Diphenyl-1,3-propanedione	350.15			
120-47-8	Ethyl 4-hydroxybenzoate	390.15	570.65		
120-50-3	Isobutyl benzoate		513.15	999.02	
120-51-4	Benzyl benzoate	292.15	594.45	1112.125	1.56802
120-55-8	Diethylene glycol dibenzoate	306.65		1169.015	
120-57-0	1,3-Benzodioxole-5-carboxaldehyde	310.15	536.15		
120-61-6	Dimethyl terephthalate	413.752	561.15	1075.141	
120-62-7	Piperonyl sulfoxide				1.53025
120-66-1	N-(2-Methylphenyl)acetamide	383.15	569.15	1168.15	
120-70-7	2,2'-[1,3-Propanediylbis(nitrilomethylidyne)]bisphenol	327.45			
120-71-8	2-Methoxy-5-methylaniline	326.15	508.15		
120-72-9	1H-Indole	325.45	527.15	1222.5	
120-73-0	1H-Purine	489.65			
120-75-2	2-Methylbenzothiazole	287.15	511.15	1176.319	1.609219
120-78-5	Mercaptobenzthiazyl ether	453.15		1500	
120-80-9	Pyrocatechol	377.75	519.15	1344.2	1.60425
120-82-1	1,2,4-Trichlorobenzene	290.15	486.65	1459.25	1.57172
120-83-2	2,4-Dichlorophenol	316.15	483.15		
120-85-4	1,2,4-Trimethylpiperazine		422.65		1.44332
120-87-6	9,10-Dihydroxyoctadecanoic acid	363.15			
120-89-8	Imidazolidinetrione	520.15			
120-92-3	Cyclopentanone	221.45	403.65	948.72	1.43662
120-93-4	2-Imidazolidinone	404.85			
120-94-5	N-Methylpyrrolidine		479.25	818.82	1.42472
120-95-6	2,4-Bis(1,1-dimethylpropyl)phenol	299.15			
120-97-8	4,5-Dichloro-1,3-benzenedisulfonamide	501.85			
1200-03-9	(4-Bromobutoxy)benzene	314.15			
1200-14-2	4-Butylbenzaldehyde				1.5265
12002-28-7	Tetracarbonyldihydroiron	203.15			
1201-26-9	1-(1H-Indol-3-yl)-2-propanone	389.15			
1201-38-3	2',5'-Dimethoxyacetophenone	294.15		1139	1.54412
1201-99-6	3-(2,4-Dichlorophenyl)-2-propenoic acid	507.15			
1202-34-2	N-2-Pyridinyl-2-pyridinamine	363.65	580.65		
1204-06-4	3-(1H-Indol-3-yl)-2-propenoic acid				
1204-28-0	1,2,4-Benzenetricarboxylic acid 1,2-anhydride, 4-chloride	339.15			
1205-02-3	N-Benzoyl-DL-alanine	438.65			
1205-64-7	3-Methyl-N-phenylaniline	303.15	589.15		1.63502
1205-91-0	1,4-Benzenediol, diacetate	396.65		873.125	
1207-69-8	9-Chloroacridine	394.15			
1207-72-3	10-Methyl-10H-phenothiazine	374.15			
12075-68-2	Trichlorotriethyldialuminum				
12079-65-1	Manganese cyclopentadienyl tricarbonyl	350.15			
1208-52-2	2,4'-Methylenedianiline	361.15			
12093-10-6	Formylferrocene	391.65			
121-00-6	2-tert-Butyl-4-methoxyphenol				
121-03-9	2-Methyl-5-nitrobenzenesulfonic acid	408.95			
121-06-2	Tris(2,6-dimethylphenyl) phosphate	410.95			
121-14-2	1-Methyl-2,4-dinitrobenzene	342.75		1320.871	1.442
121-17-5	1-Chloro-2-nitro-4-(trifluoromethyl)benzene	271.85	495.15	1511.25	1.48932
121-19-7	3-Nitro-4-hydroxyphenylarsonic acid	573.15			
121-21-1	Pyrethrin I			1519.218	1.519218
121-29-9	Pyrethrin II				1.52582
121-30-2	4-Amino-6-chloro-1,3-benzenedisulfonamide	527.65			
121-32-4	3-Ethoxy-4-hydroxybenzaldehyde	349.85	558.15		
121-33-5	4-Hydroxy-3-methoxybenzaldehyde	354.15	558.15	1056.25	
121-34-6	4-Hydroxy-3-methoxybenzoic acid	485.15			
121-39-1	3-Phenyloxiranecarboxylic acid, ethyl ester				
121-43-7	Trimethyl borate	243.85	340.55	915.25	1.35682
121-44-8	Triethylamine	158.45	361.95	727.52	1.40102
121-45-9	Trimethyl phosphite		383.15	1051.82	1.40952
121-46-0	2,5-Norbornadiene	254.15	363.15	906.42	1.47022
121-47-1	3-Aminobenzenesulfonic acid				
121-50-6	2-Chloro-5-(trifluoromethyl)aniline			1428.25	1.49752
121-51-7	3-Nitrobenzenesulfonyl chloride	337.15			
121-54-0	Benzethonium chloride	438.15			
121-57-3	4-Aminobenzenesulfonic acid	561.15		1485.25	
121-59-5	[4-[(Aminocarbonyl)amino]phenyl]arsonic acid	447.15			
121-60-8	4-(Acetylamino)benzenesulfonyl chloride	422.15			
121-61-9	N-[4-(Aminosulfonyl)phenyl]acetamide	492.65			
121-63-1	4,4'-Oxybis(benzenesulfonyl chloride)	401.15			
121-65-3	4-Dodecylbenzenesulfonic acid				
121-66-4	5-Nitro-2-thiazolamine				
121-69-7	N,N-Dimethylaniline	275.25	466.15	955.72	1.55822
121-71-1	1-(3-Hydroxyphenyl)ethanone	367.15	569.15	1099.2109	1.5348109
121-72-2	3-Methyl-N,N-dimethylaniline		467.15	941.02	1.54922
121-73-3	1-Chloro-3-nitrobenzene	316.75	509.65	1343.5	1.53748
121-75-5	Malathion	276.15		1207.62	1.49602
121-79-9	Propyl 3,4,5-trihydroxybenzoate	403.15			
121-81-3	3,5-Dinitrobenzamide	457.15			
121-82-4	Hexahydro-1,3,5-trinitro-1,3,5-triazine	476.55		1822	
121-86-8	2-Chloro-1-methyl-4-nitrobenzene	339.65	533.15		1.547069
121-87-9	2-Chloro-4-nitroaniline	381.55			
121-88-0	2-Amino-5-nitrophenol	478.95			
121-89-1	1-(3-Nitrophenyl)ethanone	354.15	475.15		
121-90-4	3-Nitrobenzoyl chloride	309.15	549.65		
121-91-5	Isophthalic acid	621.15		1538.25	
121-92-6	3-Nitrobenzoic acid	414.45		1494.2	
121-97-1	1-(4-Methoxyphenyl)-1-propanone	298.65	539.15	1079.816	
121-98-2	Methyl 4-methoxybenzoate	322.15	532.15		
1210-12-4	9-Anthracenecarbonitrile	450.65		1300.02	
1210-35-1	10,11-Dihydro-5H-dibenzo[a,d]cyclohepten-5-one	305.55		1163.52	1.63242
1210-39-5	3,3-Diphenyl-2-propenal	317.95			
12108-13-3	Manganese 2-methylcyclopentadienyl tricarbonyl	274.65	506.15	1388.2	
1212-29-9	N,N'-Dicyclohexylthiourea	453.15			
12122-67-7	Zinc N,N'-ethylenebisdithiocarbamate				
1214-39-7	N-(Phenylmethyl)-1H-purin-6-amine	505.95			
1214-47-7	1-(2-Hydroxyphenyl)-3-phenyl-2-propen-1-one	363.15			
1217-45-4	9,10-Anthracenedicarbonitrile				
1218-34-4	N-Acetyl-L-tryptophan	462.65			
122-00-9	4-Methylacetophenone	301.15	498.15	1005.12	1.53352
122-01-0	4-Chlorobenzoyl chloride	289.15	495.15	1377.02	1.57562
122-03-2	4-Isopropylbenzaldehyde		499.15	975.52	1.53012
122-04-3	4-Nitrobenzoyl chloride	344.15			
122-07-6	2,2-Dimethoxy-N-methylethanamine		413.15	928.25	1.41152
122-09-8	α,α-Dimethylbenzeneethanamine		478.15		
122-10-1	Bomyl				
122-11-2	Sulfadimethoxine	476.65			
122-14-5	Fenitrothion			1322.725	
122-15-6	Dimetan (R)-	319.15			
122-20-3	Triisopropanolamine	318.15		1020	
122-25-8	5,5'-Methylenedisalicylic acid	516.65			
122-28-1	N-(3-Nitrophenyl)acetamide	427.65			
122-32-7	Glycerol trioleate	278.45		915.15	1.467615
122-34-9	Simazine	503.55		1302.2	
122-35-0	2-Phenoxypropanoyl chloride		420.15	1186.52	1.51782
122-37-2	4-(Phenylamino)phenol	346.15	603.15		
122-39-4	Diphenylamine	326.35	578.25	1158.22	
122-40-7	2-(Phenylmethylene)heptanal	353.15		971.12	1.53812
122-42-9	Isopropyl phenylcarbamate	358.15		1092	1.498991
122-46-3	3-Methylphenyl acetate	285.15	487.15	1043.2	1.49782
122-48-5	4-(4-Hydroxy-3-methoxyphenyl)-2-butanone	313.65			
122-51-0	Triethoxymethane		418.15	890.92	1.39222
122-52-1	Triethyl phosphite		431.05	962.92	1.41272
122-59-8	Phenoxyacetic acid	371.65			
122-60-1	Phenyl glycidyl ether		517.35	1110.921	1.530721
122-62-3	Bis(2-ethylhexyl) sebacate	218.15		912.25	1.45125
122-63-4	Benzyl propanoate		497.15	1033.52	
122-66-7	1,2-Diphenylhydrazine	401.85		1158.16	
122-69-0	Cinnamyl cinnamate	317.15		1156.54	
122-70-3	2-Phenylethyl propanoate		504.15	1022.5	1.49502
122-72-5	3-Phenylpropyl acetate	233.15			
122-73-6	[(3-Methylbutoxy)methyl]benzene		509.15	909.2	1.47922
122-78-1	Benzeneacetaldehyde	306.65	475.15	1027.22	1.52552
122-79-2	Phenyl acetate		468.15	1078.02	1.50352
122-80-5	N-(4-Aminophenyl)acetamide	439.65	540.15		
122-84-9	1-(4-Methoxyphenyl)-2-propanone	258.15	541.15	1069.417	1.52532
122-85-0	N-(4-Formylphenyl)acetamide	431.15			
122-87-2	N-(4-Hydroxyphenyl)glycine				
122-88-3	(4-Chlorophenoxy)acetic acid	431.45			
122-94-1	4-Butoxyphenol	338.65			
122-95-2	1,4-Diethoxybenzene	345.15	519.15		
122-96-3	1,4-Piperazinediethanol	405.15			
122-97-4	Benzenepropanol	255.15	514.15	995.25	1.535725
122-98-5	N-Phenylethanolamine		553.15	1094.52	1.57602
122-99-6	2-Phenoxyethanol	285.15	519.15	1102.22	1.5342
1220-00-4	N,N'-Bis(4-chlorophenyl)thiourea	449.15			
1222-98-6	3-(4-Nitrophenyl)-1-phenyl-2-propen-1-one	437.15			
1223-31-0	4,4'-Dinitrodiphenyl sulfide	433.65			
1225-55-4	Protriptyline hydrochloride	443.15			
1226-42-2	Bis(4-methoxyphenyl)ethanedione	406.15			
1226-46-6	Bis[4-(dimethylamino)phenyl]methanethione	477.15			
12263-85-3	Tribromotrimethyldialuminum				
1229-12-5	5β-Androstane-3,17-dione	408.15			
123-00-2	4-Morpholinepropanamine	258.15	493.15	985.42	1.47622
123-01-3	Dodecylbenzene	271.15	602.15	855.12	1.48242
123-02-4	Tridecylbenzene	272.85	613.15	855.02	1.48212