CASRN	Name	Tm	Tb	rho	RI
593-60-2	Bromoethene	133.65	289.15	1493.32	1.43802
593-61-3	Bromoacetylene		277.85		
593-63-5	Chloroacetylene	147.15	243.15		
593-66-8	Iodoethene		330.15	2037.2	1.53852
593-70-4	Chlorofluoromethane	138.05	264.05		
593-71-5	Chloroiodomethane		387.15	2422.2	1.58222
593-74-8	Dimethyl mercury		366.15	3172.5	1.54522
593-75-9	Isocyanomethane	228.15		756.4	
593-77-1	N-Hydroxymethanamine	360.65		1000.32	1.41642
593-79-3	Dimethyl selenide		331.15	1407.715	
593-80-6	Dimethyl telluride		367.15		
593-81-7	Trimethylamine hydrochloride	550.65			
593-88-4	Trimethylarsine	186.61	325.15	1144.15	
593-90-8	Trimethylborane	113.22	252.95		
593-95-3	Carbonyl bromide		337.15	2521.5	
593-96-4	1-Bromo-1-chloroethane		374.15	1667.1	1.46602
593-98-6	Bromochlorofluoromethane	158.15	312.15	1977.1	1.414425
5930-28-9	4-Amino-2,6-dichlorophenol	441.15			
5932-68-3	trans-2-Methoxy-4-(1-propenyl)phenol	306.65		1085.22	1.57842
5934-56-5	L-Idose				
594-07-0	Carbamodithioic acid				
594-08-1	Trithiocarbonic acid	246.35	330.95	1476.25	1.82252
594-09-2	Trimethylphosphine	188.15	316.15		
594-10-5	Trimethylstibine	211.15	353.75	1523.15	1.4215
594-11-6	Methylcyclopropane	95.95	274.15		
594-14-9	Guanidine sulfate (2:1)				
594-15-0	Tribromochloromethane	328.15	431.65	2711.5	
594-16-1	2,2-Dibromopropane		386.15	1880.2	
594-18-3	Dibromodichloromethane	311.15	423.35	2422.5	
594-20-7	2,2-Dichloropropane	239.25	342.66	1113.62	1.41482
594-27-4	Tetramethylstannane	218.06	349.95	1314.25	1.4386
594-34-3	1,2-Dibromo-2-methylpropane	283.65	412.15	1782.72	1.51192
594-36-5	2-Chloro-2-methylbutane	200.55	358.15	865.32	1.40552
594-37-6	1,2-Dichloro-2-methylpropane		381.15	1093.2	1.43702
594-38-7	2-Iodo-2-methylbutane		397.65	1493.72	1.49812
594-39-8	2-Methyl-2-butanamine	168.15	350.15	731.25	1.395425
594-42-3	Trichloromethanesulfenyl chloride		422.15	1694.72	1.54842
594-44-5	Ethanesulfonyl chloride		449.65	1357.22	1.45312
594-45-6	Ethanesulfonic acid	256.15		1334.125	1.43352
594-51-4	2,3-Dibromo-2-methylbutane	280.15		1671.72	1.572925
594-56-9	2,3,3-Trimethyl-1-butene	162.15	350.95	705.02	1.40252
594-60-5	2,3-Dimethyl-2-butanol	262.65	391.85	823.62	1.41762
594-61-6	2-Hydroxy-2-methylpropanoic acid	353.15	485.15		
594-65-0	2,2,2-Trichloroacetamide	415.15	513.15		
594-70-7	2-Methyl-2-nitropropane	299.35	406.55	950.128	1.40152
594-71-8	2-Chloro-2-nitropropane	251.65	415.15	1220	1.437819
594-72-9	1,1-Dichloro-1-nitroethane		396.65		
594-73-0	Hexabromoethane			3823.2	1.863
594-82-1	2,2,3,3-Tetramethylbutane	373.94	379.47	824.22	1.46952
594-83-2	2,3,3-Trimethyl-2-butanol	290.15	401.45	838.025	1.423322
5949-29-1	Citric acid monohydrate	408.15		1542	
595-37-9	2,2-Dimethylbutanoic acid	258.15	461.02	927.62	1.41452
595-40-4	L-Isovaline	573.15			
595-41-5	2,3-Dimethyl-3-pentanol	243.15	413.15	833.2	1.42872
595-44-8	1,1-Dichloro-1-nitropropane		418.15	1312.2	
595-46-0	Dimethylmalonic acid	464.15			
595-49-3	2,2-Dinitropropane	325.15	459.15	1302.5	
595-89-1	Tetraphenylplumbane	501.45		1529.82	
595-90-4	Tetraphenylstannane	500.15	693.15		
5951-67-7	6-Vinyl-6-methyl-1-isopropyl-3-(1-methylethylidene)cyclohexene, (S)-			878.22	1.513026
5956-60-5	Berberine chloride dihydrate				
5959-52-4	3-Amino-2-naphthalenecarboxylic acid	489.65			
596-27-0	o-Cresolphthalein	496.15			
596-43-0	Bromotriphenylmethane	426.15		1550.02	
596-51-0	Glycopyrrolate	465.65			
596-75-8	Diethyl dibutylmalonate			945.72	1.43412
5965-66-2	β-D-Lactose	527.15		1592	
5965-83-3	2-Hydroxy-5-sulfobenzoic acid dihydrate				
5966-51-8	1,3-Bis(dimethylamino)-2-propanol		454.65	878.82	1.44182
59669-26-0	Thiodicarb	446.15		1420	
597-09-1	2-Ethyl-2-nitro-1,3-propanediol	330.65			
597-12-6	Melezitose	426.15		1556.525	
597-25-1	Dimethyl morpholinophosphoramidate				
597-31-9	3-Hydroxy-2,2-dimethylpropanal	362.65	446.15		
597-35-3	Diethyl sulfone	343.15	537.15	1357.2	
597-49-9	3-Ethyl-3-pentanol	260.15	415.15	840.722	1.42942
597-50-2	Triethylphosphine oxide	321.15	516.15		
597-51-3	Triethylphosphine sulfide	367.15			
597-52-4	Triethylsilanol		427.15	864.72	1.43292
597-63-7	Tetraethylgermane		437.65	1199	
597-64-8	Tetraethylstannane	141.95	454.15	1187.25	1.47302
597-71-7	Pentaerythritol tetraacetate	356.65		1273.18	
597-90-0	4-Ethyl-4-heptanol		452.15	835.02	1.43322
597-96-6	3-Methyl-3-hexanol		420.15	823.32	1.42312
5973-11-5	1-Bromo-2-methylbutane, DL		392.15	1220.52	1.44522
59756-60-4	Fluridone	428.15			
5978-95-0	D-Idose				
598-01-6	4-Methyl-4-heptanol	191.15	439.15	824.82	1.42582
598-02-7	Diethyl hydrogen phosphate			1180.02	1.41702
598-03-8	Dipropyl sulfone	301.15		1027.85	1.44563
598-04-9	Dibutyl sulfone	317.15	564.15	988.547	
598-05-0	Dipropyl sulfate			1106.42	1.41352
598-09-4	2-(Chloromethyl)-2-methyloxirane		395.15	1101.12	1.43102
598-10-7	1,1-Cyclopropanedicarboxylic acid	413.65			
598-14-1	Ethyldichloroarsine		428.45	1662	
598-16-3	Tribromoethene		437.15	2708.2	1.604516
598-21-0	Bromoacetyl bromide		421.65	2312.22	1.54492
598-23-2	3-Methyl-1-butyne	183.45	301.15	666.02	1.37232
598-25-4	3-Methyl-1,2-butadiene	159.54	313.95	680.625	1.42032
598-29-8	1,2-Diiodopropane			2490.18	
598-31-2	Bromoacetone	236.65	411.15	1634.23	1.469715
598-32-3	3-Buten-2-ol		370.15		
598-38-9	2,2-Dichloroethanol		420.15	1404.025	1.462625
598-41-4	2-Aminoacetamide	340.65			
598-45-8	2-Isocyanopropane		360.15	759.625	
598-50-5	N-Methylurea	374.45		1204	
598-52-7	Methylthiourea	392.35			
598-53-8	Isopropyl methyl ether		303.95	723.715	1.35762
598-55-0	Methyl carbamate	328.55	464.15	1136.156	1.412556
598-56-1	Ethyldimethylamine	133.15	309.65	675.2	1.370525
598-57-2	N-Nitromethanamine	311.15		1243.349	1.461649
598-58-3	Methyl nitrate	190.25	338.15	1207.52	1.37482
598-61-8	Methylcyclobutane	111.65	310.15	688.42	1.38662
598-73-2	Bromotrifluoroethene		270.65		
598-74-3	3-Methyl-2-butanamine	223.15	354.15	757.419	1.409618
598-77-6	1,1,2-Trichloropropane		406.15	1372.15	
598-78-7	2-Chloropropanoic acid		458.15	1258.52	1.43802
598-79-8	2-Chloropropenoic acid	339.15			
598-82-3	DL-Lactic acid	290.05		1206.021	1.43922
598-92-5	1-Chloro-1-nitroethane		397.65	1283.72	1.42242
598-94-7	N,N-Dimethylurea	454.35		1255.525	
598-98-1	Methyl 2,2-dimethylpropanoate		375.15	891	1.39052
598-99-2	Methyl trichloroacetate	255.65	425.15	1487.42	1.45722
5984-58-7	6-Methyl-2-heptanamine, (±)-		429.15	767.25	1.42092
5986-55-0	Patchouli alcohol	329.15		990.665	1.502965
5988-76-1	Cucurbitacin C	480.65			
5989-27-5	d-Limonene	199.15	450.75	841.12	1.47302
5989-54-8	l-Limonene		451.15	843.2	1.47462
5989-81-1	α-Lactose monohydrate			1547.2	
599-04-2	Pantolactone	365.15			
599-61-1	Bis(3-aminophenyl) sulfone	441.65			
599-64-4	4-(1-Methyl-1-phenylethyl)phenol	346.35	614.35		
599-66-6	Bis(4-methylphenyl) sulfone	423.15	679.15		
599-67-7	α-Methyl-α-phenylbenzenemethanol		558.15	1105.915	
599-70-2	Ethyl phenyl sulfone	315.15		1141.02	
599-79-1	Sulfasalazine				
599-91-7	Propyl 4-toluenesulfonate	253.15		1144.2	1.49982
60-00-4	Ethylenediaminetetraacetic acid				
60-01-5	Tributyrin	198.15	580.65	1035.02	1.43592
60-09-3	4-Aminoazobenzene	398.15			
60-10-6	Dithizone				
60-11-7	4-(Dimethylamino)azobenzene	389.15			
60-12-8	Benzeneethanol	254.15	493.15	1020.22	1.53252
60-18-4	L-Tyrosine				
60-23-1	Cysteamine	372.65			
60-24-2	2-Mercaptoethanol		423.15	1114.32	1.49962
60-27-5	Creatinine				
60-29-7	Diethyl ether	156.93	307.55	713.82	1.35262
60-31-1	Acetylcholine chloride	423.15			
60-32-2	6-Aminohexanoic acid	478.15			
60-33-3	cis,cis-9,12-Octadecadienoic acid	266.25		902.22	1.46992
60-34-4	Methylhydrazine	220.85	356.15		1.43252
60-35-5	Acetamide	353.31	495.15	998.685	1.4278
60-41-3	Strychnidin-10-one sulfate (2:1)				
60-51-5	Cygon	324.55		1277.65	
60-54-8	Tetracycline				
60-56-0	1,3-Dihydro-1-methyl-2H-imidazole-2-thione	419.15			
60-57-1	Dieldrin	451.95		1752.5	
60-70-8	Veratramine	479.15			
60-79-7	Ergonovine				
60-80-0	1,2-Dihydro-1,5-dimethyl-2-phenyl-3H-pyrazol-3-one	381.15	592.15		
60-82-2	Phloretin				
60-87-7	Promethazine	333.15			
60-91-3	N,N-Diethyl-10H-phenothiazine-10-ethanamine				
60-92-4	Adenosine cyclic 3',5'-(hydrogen phosphate)	492.15			
600-00-0	Ethyl 2-bromo-2-methylpropanoate		451.15	1326.32	1.44462
600-05-5	2,3-Dibromopropanoic acid	339.65			
600-07-7	2-Methylbutanoic acid	193.15	450.15	934.2	1.40512
600-11-3	2,3-Dichloropentane	195.85	416.15	1078.92	1.44642
600-14-6	2,3-Pentanedione		383.05	956.519	1.401419
600-15-7	2-Hydroxybutanoic acid, (±)-	317.35		1125.2	
600-18-0	2-Oxobutanoic acid	306.15		1200.17	1.39722
600-22-6	Methyl 2-oxopropanoate		411.15	1154	1.404625
600-25-9	1-Chloro-1-nitropropane		415.15	1207.2	1.42512
600-36-2	2,4-Dimethyl-3-pentanol	203.15	415.15	828.82	1.42502
600-40-8	1,1-Dinitroethane		458.65	1349.24	
6000-40-4	2,3-Dihydroxypropanoic acid, (R)-				
6000-43-7	Glycine, hydrochloride	473.65			
6004-44-0	1-Propen-1-one	193.15	250.15		
6006-33-3	Tridecylcyclohexane	287.15	605.15	823.92	1.45702
6006-95-7	Pentadecylcyclohexane	298.15	644.15	826.72	1.45882
601-34-3	Cholest-5-en-3-ol (3β)-, hexadecanoate	352.85			
601-57-0	Cholest-4-en-3-one	354.65			
601-75-2	Ethylpropanedioic acid	385.15			
601-76-3	1,1-Dinitropropane	231.15	467.15	1261.025	1.43392
601-77-4	N-Isopropyl-N-nitroso-2-propanamine	321.15	467.65	942.22	
6011-14-9	Aminoacetonitrile monohydrochloride				
6012-97-1	Tetrachlorothiophene	303.65	506.55	1703.63	1.59153
60168-88-9	Fenarimol	391.15			
602-01-7	1-Methyl-2,3-dinitrobenzene	329.75			
602-03-9	2,3-Dinitroaniline	401.15		1646.5	
602-09-5	[1,1'-Binaphthalene]-2,2'-diol	493.15			
602-38-0	1,8-Dinitronaphthalene	445.15			
602-55-1	9-Phenylanthracene	427.15	690.15		
602-56-2	9-Phenylacridine	457.15	677.15		
602-60-8	9-Nitroanthracene	420.35			
602-64-2	1,2,3-Trihydroxy-9,10-anthracenedione	586.15			
602-87-9	1,2-Dihydro-5-nitroacenaphthylene	376.15			
602-92-6	2,6-Dibromo-3,4,5-trihydroxybenzoic acid	423.15			
602-94-8	Pentafluorobenzoic acid	376.45	493.15		
60207-90-1	Propiconazole			1272	
60212-29-5	2-Undecyne	243.05	479.15	782.72	1.43912
60251-57-2	2-Bromooctane, (±)-		461.65	1087.825	1.444225
6027-13-0	L-Homocysteine	505.15			
6027-89-0	L-Gulose				
6029-84-1	Rinderine	373.65			
603-11-2	3-Nitro-1,2-benzenedicarboxylic acid	491.15			
603-32-7	Triphenylarsine	333.15	633.15	1263.418	1.688821
603-33-8	Triphenylbismuthine	351.15		1715.75	1.704075
603-34-9	Triphenylamine	399.65	635.15	1182.5	
603-35-0	Triphenylphosphine	353.15		1074.98	1.63588
603-36-1	Triphenylstibine	328.15		1434.325	1.694842
603-45-2	Aurin				
603-48-5	Tris(4-dimethylaminophenyl)methane	449.65			
603-50-9	Bisacodyl	407.15			
603-54-3	N,N-Diphenylurea	462.15		1276.25	
603-71-4	1,3,5-Trimethyl-2-nitrobenzene	317.15	528.15	1512.5	
603-76-9	1-Methyl-1H-indole		514.15	1070.725	
603-83-8	2-Methyl-3-nitroaniline	365.15	578.15	1378.015	
6032-29-7	2-Pentanol	200.15	392.25	809.42	1.40532
6035-50-3	DL-Fructose	403.15		1665.16	
604-32-0	Cholest-5-en-3-ol (3β), benzoate	423.15		941.32	
604-35-3	Cholest-5-en-3-ol (3β), acetate	387.75			
604-44-4	4-Chloro-1-naphthol	393.65			
604-53-5	1,1'-Binaphthalene	432.15		1300.02	
604-59-1	7,8-Benzoflavone	430.15			
604-68-2	α-D-Glucose pentaacetate	405.15			
604-69-3	β-D-Glucose pentaacetate	407.15		1274.02	
604-75-1	Oxazepam	478.65			
604-88-6	Hexaethylbenzene	402.15	571.15	830.513	1.473613
6044-68-4	3,3-Dimethoxy-1-propene		361.15	862.25	1.39542
605-01-6	Pentaethylbenzene	253.15	550.15	897.119	1.51272
605-02-7	1-Phenylnaphthalene	318.15	607.15	1096.2	1.66642
605-32-3	2-Hydroxy-9,10-anthracenedione	579.15			
605-39-0	2,2'-Dimethylbiphenyl	293.09	531.15	990.62	1.57522
605-45-8	Diisopropyl phthalate			1061.515	1.49002
605-48-1	9,10-Dichloroanthracene	486.65			
605-50-5	Diisopentyl phthalate		640.15	1020.916	1.48712
605-54-9	Bis(2-ethoxyethyl) phthalate	307.15	618.15	1122.921	
605-65-2	5-(Dimethylamino)-1-naphthalenesulfonyl chloride	343.15			
605-69-6	2,4-Dinitro-1-naphthol	411.15			
605-71-0	1,5-Dinitronaphthalene	490.15	644.15	1586.02	
6050-13-1	Dibenz[c,e]oxepin-5,7-dione	490.15			
60583-39-3	Brucine sulfate heptahydrate				
606-17-7	Iodipamide				
606-20-2	2-Methyl-1,3-dinitrobenzene	336.95	558.15	1283.3111	1.479
606-21-3	2-Chloro-1,3-dinitrobenzene	361.15	588.15	1686.716	
606-22-4	2,6-Dinitroaniline	411.15			
606-23-5	1H-Indene-1,3(2H)-dione	402.15		1372.1	
606-27-9	Methyl 2-nitrobenzoate	260.15	548.15	1285.52	
606-28-0	Methyl 2-benzoylbenzoate	325.15	624.15	1190.319	1.5912
606-35-9	2-Methoxy-1,3,5-trinitrobenzene	340.75		1494.78	
606-37-1	1,3-Dinitronaphthalene	421.15			
606-43-9	1-Methyl-2(1H)-quinolinone	347.15	598.15		
606-45-1	Methyl 2-methoxybenzoate		519.65	1157.119	1.53419
606-46-2	N,N-Diethyl-2-methylaniline	213.15	482.15	928.62	1.51532
606-83-7	β-Phenylbenzenepropanoic acid	429.15			
6064-63-7	2-Hydroxyhexanoic acid	333.15			
6065-82-3	Ethyl diethoxyacetate		472.15	985.25	1.41002
6066-82-6	1-Hydroxy-2,5-pyrrolidinedione	369.45			
6069-98-3	cis-4-Isopropyl-1-methylcyclohexane	183.35	445.15	803.92	1.44312
607-00-1	N,N-Diphenylformamide	346.65	610.65		
607-30-7	1-Naphthylhydroxylamine	352.15			
607-34-1	5-Nitroquinoline	361.15			
607-35-2	8-Nitroquinoline	361.15			
607-42-1	1-Anthracenecarboxylic acid	524.65			
607-56-7	N,N'-Di-1-naphthylurea	569.15			
607-57-8	2-Nitro-9H-fluorene	428.15			
607-81-8	Diethyl benzylmalonate		573.15	1076.15	1.48722
607-85-2	Isopropyl 2-hydroxybenzoate		511.15	1072.92	1.50652
607-90-9	Propyl 2-hydroxybenzoate	370.15	512.15	1097.92	1.51612
607-91-0	Myristicin	253.15	549.65	1141.62	1.54032
607-97-6	Ethyl 2-ethylacetoacetate		470.15	984.716	1.421425
607-99-8	1,3,5-Tribromo-2-methoxybenzene	361.15	571.15	2491.25	
6074-84-6	Pentaethyl tantalate				
6078-26-8	Bikhaconitine	437.15			
608-07-1	5-Methoxy-1H-indole-3-ethanamine	394.65			
608-08-2	1H-Indol-3-ol, acetate	402.15			
608-25-3	2-Methyl-1,3-benzenediol	393.15	538.15		
608-27-5	2,3-Dichloroaniline	297.15	525.15		
608-28-6	2-Iodo-1,3-dimethylbenzene	284.35	501.15	1615.82	1.60352
608-31-1	2,6-Dichloroaniline	312.15			
608-33-3	2,6-Dibromophenol	329.65	528.15		
608-45-7	α-D-Arabinopyranose	428.65		1585.25	
608-66-2	Galactitol	460.35		1472	
608-68-4	Dimethyl L-tartrate	323.15	553.15	1306.45	
608-71-9	Pentabromophenol	502.65			
608-89-9	Ethyl tartrate	363.15			
608-93-5	Pentachlorobenzene	357.35	552.15	1834.216	
6089-09-4	4-Pentynoic acid	328.15			
609-02-9	Dimethyl methylmalonate		450.15	1097.72	1.41282
609-08-5	Diethyl methylmalonate		471.25	1022.52	1.41262
609-09-6	Diethyl ketomalonate	243.15	483.15	1141.916	1.431022
609-11-0	Ethyl 2,3-dibromobutanoate	331.65		1680.02	
609-12-1	Ethyl 2-bromo-3-methylbutanoate		459.15	1276.02	1.44962
609-14-3	Ethyl 2-methylacetoacetate		460.15	994.12	1.41852
609-19-8	3,4,5-Trichlorophenol	374.15	548.15		
609-20-1	2,6-Dichloro-1,4-benzenediamine	398.15			
609-22-3	2,4-Dibromo-6-methylphenol	331.15			
609-23-4	2,4,6-Triiodophenol	432.95			
609-26-7	3-Ethyl-2-methylpentane	158.15	388.75	719.32	1.40402
609-31-4	2-Nitro-1-butanol	226.15		1133.225	1.43902
609-36-9	DL-Proline				
609-39-2	2-Nitrofuran	302.15			
609-40-5	2-Nitrothiophene	319.65	497.65	1364.443	
609-65-4	2-Chlorobenzoyl chloride	269.15	514.15		1.572616
609-66-5	2-Chlorobenzamide	414.95			
609-67-6	2-Iodobenzoyl chloride	311.45			
609-72-3	2-Methyl-N,N-dimethylaniline	212.15	458.15	928.62	1.51522
609-73-4	1-Iodo-2-nitrobenzene	323.15	563.15	1918.675	
609-93-8	4-Methyl-2,6-dinitrophenol	358.15			
609-99-4	2-Hydroxy-3,5-dinitrobenzoic acid	455.15			
6091-44-7	Piperidine, hydrochloride				
6091-52-7	6-Isopropyl-3-methyl-2-cyclohexen-1-one, (±)-	254.15	505.65	933.12	1.48452
6094-02-6	2-Methyl-1-hexene	170.33	365.15	700.02	1.40352
61-00-7	Acepromazine				
61-12-1	Dibucaine hydrochloride				
61-16-5	Methoxamine hydrochloride	487.15			
61-19-8	Adenosine 5'-monophosphate				
61-25-6	Papaverine hydrochloride	497.65			
61-33-6	Penicillin G				
61-50-7	N,N-Dimethyl-1H-indole-3-ethanamine	319.15			
61-54-1	Tryptamine	391.15			
61-68-7	Mefenamic acid				
61-73-4	Methylene blue				
61-78-9	N-(4-Aminobenzoyl)glycine	471.65			
61-80-3	5-Chloro-2-benzoxazolamine	457.65			
61-82-5	1H-1,2,4-Triazol-3-amine	428.95			
61-90-5	L-Leucine	566.15		1293.18	
610-02-6	2,3,4-Trihydroxybenzoic acid	494.15			
610-14-0	2-Nitrobenzoyl chloride	293.15			
610-16-2	2-(Dimethylamino)benzoic acid	345.15			
610-17-3	N,N-Dimethyl-2-nitroaniline	253.15		1179.42	1.61022
610-27-5	4-Nitro-1,2-benzenedicarboxylic acid	437.95			
610-30-0	2,4-Dinitrobenzoic acid	455.85		1672.2	
610-39-9	4-Methyl-1,2-dinitrobenzene	331.45		1259.4111	
610-48-0	1-Methylanthracene	358.65	615.15	1047.199	1.680299
610-50-4	1-Anthracenol	431.15			
610-60-6	Methyl benzoylsalicylate	358.15	658.15		
610-66-2	2-Nitrobenzeneacetonitrile	357.15			
610-67-3	1-Ethoxy-2-nitrobenzene	274.25	540.15	1190.315	1.54252
610-69-5	2-Nitrophenyl acetate	313.65			
610-72-0	2,5-Dimethylbenzoic acid	405.15		1069.21	
610-89-9	Ethyl 2-acetyl-4-pentenoate		481.15	989.82	1.438818
610-94-6	Methyl 2-bromobenzoate		517.15		
610-96-8	Methyl 2-chlorobenzoate		507.15		
610-97-9	Methyl 2-iodobenzoate		553.15		1.60522
610-99-1	1-(2-Hydroxyphenyl)-1-propanone				1.55012
6106-24-7	Sodium tartrate dihydrate			1545.25	
6108-61-8	cis,cis-2,4-Hexadiene		358.15	729.825	1.46062
611-01-8	2,4-Dimethylbenzoic acid	400.15	541.15		
611-06-3	2,4-Dichloro-1-nitrobenzene	306.15	531.65	1479.08	1.55127
611-07-4	5-Chloro-2-nitrophenol	312.15			
611-08-5	5-Nitro-2,4(1H,3H)-pyrimidinedione				
611-10-9	Ethyl 2-cyclopentanone-1-carboxylate		494.15	1078.121	1.45192
611-13-2	Methyl 2-furancarboxylate		454.45	1178.621	1.48602
611-14-3	2-Ethyltoluene	192.45	438.25	880.72	1.50462
611-15-4	2-Methylstyrene	204.65	443.15	907.725	1.54372
611-17-6	1-(Bromomethyl)-2-chlorobenzene				
611-19-8	1-Chloro-2-(chloromethyl)benzene	256.15	490.15	1269.9	1.55302
611-20-1	2-Hydroxybenzonitrile	371.15		1105.21	1.53721
611-21-2	N,2-Dimethylaniline		480.65	970.92	1.56492
611-32-5	8-Methylquinoline	193.15	520.55	1071.92	1.61642
611-33-6	8-Chloroquinoline	253.15	561.65	1283.414	1.640814
611-34-7	5-Quinolinamine	379.15	583.15		
611-35-8	4-Chloroquinoline	308.05	535.15	1251.25	
611-36-9	4-Quinolinol	483.15			
611-69-8	α-Isopropylbenzenemethanol		496.15	986.914	1.519314
611-70-1	2-Methyl-1-phenyl-1-propanone	272.45	493.15	986.311	1.51722
611-72-3	α-Hydroxybenzeneacetic acid, (±)-	391.75		1289.02	
611-73-4	α-Oxobenzeneacetic acid	338.95			
611-74-5	N,N-Dimethylbenzamide	316.95	545.15		
611-92-7	N,N'-Dimethyl-N,N'-diphenylurea	394.75	623.15		
611-94-9	(4-Methoxyphenyl)phenylmethanone	334.65	628.15		
611-95-0	4-Benzoylbenzoic acid	472.15			
611-97-2	4,4'-Dimethylbenzophenone	369.65	612.15		
611-99-4	4,4'-Dihydroxybenzophenone	483.15		1133.131	
6111-88-2	2-Chloro-2,4,4-trimethylpentane	247.15	423.15	874.62	1.43082
6114-18-7	Ethyl trans-9-octadecenoate	278.25		866.425	1.448025
6117-80-2	cis-2-Butene-1,4-diol	284.15	508.15	1069.82	1.47822
6119-92-2	Dinocap				
612-00-0	1,1-Diphenylethane	255.15	558.95	999.72	1.57562
612-12-4	1,2-Bis(chloromethyl)benzene	328.15	512.65	1393.25	
612-14-6	1,2-Benzenedimethanol	339.15			
612-15-7	1-Vinyl-2-methoxybenzene	302.15	488.15	1004.917	1.53882
612-16-8	2-Methoxybenzenemethanol		522.15	1038.625	1.54552
612-17-9	1,4-Dihydronaphthalene	297.75	483.15	992.833	1.55772
612-22-6	1-Ethyl-2-nitrobenzene	260.95	505.65	1120.72	1.53562
612-23-7	1-(Chloromethyl)-2-nitrobenzene	320.85			1.555762
612-25-9	2-Nitrobenzenemethanol	347.15	543.15		
612-28-2	N-Methyl-2-nitroaniline	311.15			
612-55-5	2-Iodonaphthalene	327.45	581.15	1631.999	1.666299
612-57-7	6-Chloroquinoline	319.05	535.15		1.611056
612-58-8	3-Methylquinoline	289.65	524.15	1067.32	1.61712
612-60-2	7-Methylquinoline	312.15	531.15	1060.92	1.61502
612-62-4	2-Chloroquinoline	311.55	539.15	1246.425	1.634225
612-71-5	5'-Phenyl-1,1':3',1''-terphenyl	446.15	735.15	1199.3	
612-75-9	3,3'-Dimethylbiphenyl	281.15	562.75	999.52	1.59462
612-78-2	2,2'-Binaphthalene	461.25	725.15		
612-83-9	3,3'-Dichloro-p-benzidine dihydrochloride				
612-94-2	2-Phenylnaphthalene	374.15	618.65	1218.02	
612-96-4	2-Phenylquinoline	356.15	636.15		
6125-21-9	1,3-Dinitropropane	251.75		1353.26	1.46542