CASRN	Name	Tm	Tb	rho	RI
82-45-1	1-Amino-9,10-anthracenedione	526.65			
82-46-2	1,5-Dichloro-9,10-anthracenedione	525.15			
82-49-5	9,10-Dihydro-9,10-dioxo-1-anthracenesulfonic acid	489.15			
82-54-2	Cotarnine				
82-57-5	Visnagin	417.65			
82-58-6	Lysergic acid				
82-62-2	3,4,6-Trichloro-2-nitrophenol	364.15			
82-66-6	2-(Diphenylacetyl)-1H-indene-1,3(2H)-dione	419.65			1.67
82-68-8	Pentachloronitrobenzene	417.85		1718.25	
82-71-3	2,4,6-Trinitro-1,3-benzenediol	451.15			
82-75-7	8-Amino-1-naphthalenesulfonic acid				
82-86-0	1,2-Acenaphthylenedione	532.15		1480.02	
82-88-2	Phenindamine	364.15		1170	
82-92-8	Cyclizine	379.15			
82-93-9	Chlorcyclizine				
82097-50-5	Triasulfuron	459.15			
821-06-7	trans-1,4-Dibromo-2-butene	326.55	476.15		
821-07-8	trans-1,3,5-Hexatriene	261.15	352.15	736.915	1.51352
821-08-9	1,5-Hexadien-3-yne	185.15	358.15	785.12	1.50352
821-09-0	4-Penten-1-ol		409.15	845.72	1.43092
821-10-3	1,4-Dichloro-2-butyne		437.15	1258.2	1.50582
821-11-4	trans-2-Butene-1,4-diol	300.15		1070.02	1.47552
821-38-5	Tetradecanedioic acid	397.35	639.15		
821-48-7	2-Chloro-N-(2-chloroethyl)ethanamine, hydrochloride	488.15			
821-55-6	2-Nonanone	265.75	467.15	820.82	1.42102
821-67-0	Azopropane		387.15		
821-76-1	1,7-Dichloroheptane			1040.825	1.456525
821-95-4	1-Undecene	224.03	465.85	750.32	1.42612
821-96-5	cis-2-Undecene	206.65	469.25	757.62	
821-98-7	cis-4-Undecene	176.15	465.75	754.12	1.43022
821-99-8	1,9-Dichlorononane		514.15	1017.325	1.458625
82110-72-3	Fenoxaprop-ethyl	358.15			
822-06-0	Hexamethylene diisocyanate			1052.82	1.45852
822-23-1	Octadecyl acetate	305.35		851.03	
822-28-6	Hexadecyl vinyl ether	289.15		821.27	1.444425
822-35-5	Cyclobutene		275.65	733	
822-36-6	4-Methyl-1H-imidazole	329.15	536.15	1041.614	1.503714
822-38-8	1,3-Dithiolane-2-thione	308.15	580.15		
822-50-4	trans-1,2-Dimethylcyclopentane	155.15	365.05	746.825	1.41202
822-67-3	2-Cyclohexen-1-ol		449.15	992.315	1.479025
822-85-5	2-Bromocyclohexanone			1340.25	1.508525
822-87-7	2-Chlorocyclohexanone	296.15		1160.2	1.48252
823-40-5	2-Methyl-1,3-benzenediamine	379.15			
823-76-7	1-Cyclohexylethanone		453.65	917.62	1.456516
823-78-9	1-Bromo-3-(bromomethyl)benzene	315.15			
824-11-3	4-Ethyl-2,6,7-trioxa-1-phosphabicyclo[2.2.2]octane	326.85			
824-55-5	1-(Chloromethyl)-2,4-dimethylbenzene		506.15	1058.019	
824-69-1	2,5-Dichloro-1,4-benzenediol	445.65		1815.024	
824-72-6	Phenylphosphonic dichloride	274.15	531.15	1197.25	1.558125
824-94-2	1-(Chloromethyl)-4-methoxybenzene	297.65	535.65	1261.2	1.5802
82410-32-0	Ganciclovir				
825-25-2	2-Cyclopentylidenecyclopentanone			1017.918	1.521518
825-51-4	Decahydro-2-naphthol			996.25	1.49922
825-94-5	Trichloro(4-chlorophenyl)silane		506.15	1406.22	1.54182
82558-50-7	Isoxaben	446.15			
82584-73-4	(Bromomethyl)oxirane, (±)-	233.15	411.15	1615.14	1.48412
826-36-8	2,2,6,6-Tetramethyl-4-piperidinone	308.65	478.15		
826-62-0	5-Norbornene-2,3-dicarboxylic acid anhydride	439.15			
826-73-3	6,7,8,9-Tetrahydro-5H-benzocyclohepten-5-one			1080.2	1.56982
826-74-4	1-Vinylnaphthalene			1065.62	1.6442
826-81-3	2-Methyl-8-quinolinol	346.95	540.15		
82657-04-3	Bifenthrin	342.15		1212.5	
827-15-6	Pentafluoroiodobenzene	244.15	434.15	2212.2	1.495025
827-52-1	Cyclohexylbenzene	280.17	512.15	942.72	1.53292
827-54-3	2-Vinylnaphthalene	338.15			
827-94-1	2,6-Dibromo-4-nitroaniline	480.15			
828-00-2	Dimethoxane			1065.52	1.43102
828-01-3	α-Hydroxybenzenepropanoic acid, (±)-	371.15			
829-84-5	Dicyclohexylphosphine		554.15	904.25	1.51632
83-01-2	Diphenylcarbamic chloride	357.65			
83-07-8	Ampyrone	382.15			
83-12-5	2-Phenyl-1H-indene-1,3(2H)-dione	423.15			
83-13-6	Diethyl phenylmalonate	289.65	564.15	1095.02	1.49772
83-14-7	Pellotine	384.65			
83-25-0	1-Phenyl-2,5-pyrrolidinedione	429.15	673.15	1356.25	
83-26-1	2-Pivaloyl-1,3-indandione	382.85			
83-30-7	2,4,6-Trihydroxybenzoic acid				
83-32-9	Acenaphthene	366.15	550.65	1222.2	1.604895
83-33-0	2,3-Dihydro-1H-inden-1-one	313.15	516.15	1094.34	1.56125
83-34-1	3-Methyl-1H-indole	368.25	539.15		
83-38-5	2,6-Dichlorobenzaldehyde	342.15			
83-40-9	2-Hydroxy-3-methylbenzoic acid	440.15			
83-41-0	1,2-Dimethyl-3-nitrobenzene	287.15	513.15	1140.22	1.54412
83-42-1	1-Chloro-2-methyl-3-nitrobenzene	310.95	511.15		1.537769
83-43-2	Methylprednisolone	505.15			
83-44-3	3,12-Dihydroxycholan-24-oic acid, (3α,5β,12α)	450.15			
83-45-4	Stigmastan-3-ol, (3β,5α)	417.15			
83-46-5	Stigmast-5-en-3-ol, (3β,24R)-	411.15			
83-47-6	Stigmast-5-en-3-ol, (3β,24S)-	421.15			
83-48-7	Stigmasta-5,22-dien-3-ol, (3β,22E)-	435.15			
83-49-8	3,6-Dihydroxycholan-24-oic acid, (3α,5β,6α)	471.65			
83-53-4	1,4-Dibromonaphthalene	356.15	583.15		
83-54-5	1-Methyl-4(1H)-quinolinone	425.15			
83-55-6	5-Amino-1-naphthol	443.15			
83-56-7	1,5-Naphthalenediol				
83-60-3	Reserpic acid	515.15			
83-66-9	1-tert-Butyl-2-methoxy-4-methyl-3,5-dinitrobenzene	358.15			
83-67-0	Theobromine	630.15			
83-72-7	2-Hydroxy-1,4-naphthalenedione				
83-73-8	5,7-Diiodo-8-quinolinol	483.15			
83-74-9	12-Methoxyibogamine	421.15			
83-79-4	Rotenone	438.15			
83-81-8	N,N,N',N'-Tetraethyl-1,2-benzenedicarboxamide	309.15			
83-88-5	Riboflavin				
83-89-6	Quinacrine	360.15			
83-95-4	4,7,8-Trimethoxyfuro[2,3-b]quinoline	450.15			
83-98-7	Orphenadrine				
830-03-5	4-Nitrophenyl acetate	355.45			
830-13-7	Cyclododecanone	335.55		905.966	1.45716
830-81-9	1-Naphthol, acetate	319.15			
830-89-7	5-Isobutyl-3-allyl-2-thioxo-4-imidazolidinone	483.65			
830-96-6	1H-Indole-3-propanoic acid	407.65			
83055-99-6	Bensulfuron-methyl	460.15			
831-61-8	Ethyl 3,4,5-trihydroxybenzoate	436.15			
831-81-2	1-Chloro-4-benzylbenzene	280.65	572.15	1124.72	
831-82-3	4-Phenoxyphenol	357.15			
831-91-4	(Benzylthio)benzene	316.65			
832-64-4	4-Methylphenanthrene	324.91			
832-69-9	1-Methylphenanthrene	396.15	617.15		
832-71-3	3-Methylphenanthrene	338.15	623.15		
834-12-8	Ametryn	356.75			
834-28-6	N-(2-Phenylethyl)imidodicarbonimidic diamide, monohydrochloride	451.15			
835-11-0	2,2'-Dihydroxybenzophenone	332.65	606.15		
835-64-3	2-(2-Benzoxazolyl)phenol	396.65	611.15		
836-30-6	4-Nitro-N-phenylaniline	407.15			
83657-24-3	Diniconazole	422.15			
837-08-1	2-(2-Hydroxyphenyl)-2-(4-hydroxyphenyl)propane	384.15			
839-90-7	1,3,5-Tris(2-hydroxyethyl) isocyanuric acid	409.15			
83915-83-7	Lisinopril	432.15			
84-06-0	Thiopropazate				
84-11-7	9,10-Phenanthrenedione	481.65		1405.22	
84-15-1	o-Terphenyl	329.34	610.15	1122.5	
84-16-2	Hexestrol	459.65			
84-17-3	Dienestrol	500.65			
84-21-9	Adenosine 3'-phosphate				
84-26-4	Rutecarpine	532.65			
84-31-1	Quininone	381.15			
84-47-9	2-tert-Butyl-9,10-anthracenedione	372.15			
84-48-0	9,10-Dihydro-9,10-dioxo-2-anthracenesulfonic acid				
84-50-4	9,10-Dihydro-9,10-dioxo-2,6-anthracenedisulfonic acid				
84-51-5	2-Ethyl-9,10-anthracenedione	381.95			
84-52-6	3'-Cytidylic acid				
84-54-8	2-Methyl-9,10-anthracenedione	449.35			
84-55-9	Viquidil	333.15			
84-58-2	2,3-Dichloro-5,6-dicyanobenzoquinone	487.65			
84-60-6	2,6-Dihydroxy-9,10-anthracenedione				
84-61-7	Dicyclohexyl phthalate	339.15		1383.2	1.4312
84-62-8	Diphenyl phthalate	346.15			
84-64-0	Butyl cyclohexyl phthalate			1076.25	
84-65-1	9,10-Anthracenedione	557.95	650.15	1438.2	
84-66-2	Diethyl phthalate	232.65	571.15	1232.14	1.500021
84-68-4	2,2'-Dichloro-p-benzidine	438.15			
84-69-5	Diisobutyl phthalate		569.65	1049.015	
84-74-2	Dibutyl phthalate	238.15	611.15	1046.52	1.49112
84-75-3	Dihexyl phthalate		652.15		
84-76-4	Dinonyl phthalate		686.15		
84-77-5	Didecyl phthalate	275.65	736.15	963.92	
84-79-7	Lapachol	412.65			
84-80-0	Vitamin K1	253.15		964.25	1.525025
84-83-3	(1,3-Dihydro-1,3,3-trimethyl-2H-indol-2-ylidene)acetaldehyde				
84-85-5	4-Methoxy-1-naphthol	402.95			
84-86-6	4-Amino-1-naphthalenesulfonic acid			1670.325	
84-87-7	4-Hydroxy-1-naphthalenesulfonic acid				
84-88-8	8-Hydroxy-5-quinolinesulfonic acid	595.65			
84-89-9	5-Amino-1-naphthalenesulfonic acid				
84-95-7	N,N-Diethyl-1-naphthalenamine		558.15	1013.2	1.59612
84-96-8	Trimeprazine	341.15			
84-97-9	Perazine	325.15			
84-99-1	Xanthoxyletin	406.15			
840-65-3	2,6-Naphthalenedicarboxylic acid, dimethyl ester	464.45			
840-97-1	N-Acetyl-L-tyrosine ethyl ester	353.65			
84087-01-4	Quinclorac	547.15		1750	
841-06-5	Methoprotryne	342.15			
841-73-6	Bucolome	357.15			
842-07-9	1-(Phenylazo)-2-naphthol	405.15			
84371-65-3	Mifepristone	423.15			
846-46-8	5α-Androstane-3,17-dione	403.15			
846-48-0	Boldenone	438.15			
848-53-3	Homochlorocyclizine				
849-99-0	Dicyclohexyl hexanedioate	308.15			
85-00-7	Diquat dibromide	610.15		1242	
85-01-8	Phenanthrene	372.15	611.55	980.04	1.5943
85-02-9	Benzo[f]quinoline	365.15	625.15		
85-19-8	2-Chloro-5-hydroxybenzophenone	368.45			
85-23-4	Spinulosin	475.65			
85-29-0	(2-Chlorophenyl)(4-chlorophenyl)methanone	338.85		1393.14	
85-32-5	Guanosine 5'-monophosphate				
85-34-7	2,3,6-Trichlorobenzeneacetic acid	433.55			
85-38-1	2-Hydroxy-3-nitrobenzoic acid	421.15			
85-40-5	1,2,3,6-Tetrahydrophthalimide	410.15			
85-41-6	1H-Isoindole-1,3(2H)-dione	511.15			
85-42-7	Hexahydro-1,3-isobenzofurandione	305.15			
85-44-9	Phthalic anhydride	404.55	558.45	1527.4	
85-46-1	1-Naphthalenesulfonyl chloride	341.15			
85-47-2	1-Naphthalenesulfonic acid	413.15			
85-52-9	2-Benzoylbenzoic acid	402.15			
85-55-2	2-(4-Methylbenzoyl)benzoic acid	413.35			
85-61-0	Coenzyme A				
85-64-3	Laudanine	440.15		1262	
85-66-5	Pyocyanine				
85-68-7	Benzyl butyl phthalate		643.15	1119.25	
85-69-8	2-Ethylhexyl butyl phthalate				
85-73-4	Phthalylsulphathiazole	546.15			
85-74-5	4-Amino-1,7-naphthalenedisulfonic acid				
85-75-6	4-Amino-1,6-naphthalenedisulfonic acid				
85-79-0	Dibucaine	337.15			
85-82-5	1-[(2,5-Dimethylphenyl)azo]-2-naphthol	426.15			
85-83-6	Scarlet red	533.15			
85-84-7	1-(Phenylazo)-2-naphthalenamine	376.15			
85-85-8	1-(2-Pyridylazo)-2-naphthol	403.15			
85-86-9	1-[[4-(Phenylazo)phenyl]azo]-2-naphthol	468.15			
85-87-0	Pyridoxamine	471.15			
85-90-5	3-Methyl-4H-1-benzopyran-4-one				
85-91-6	Methyl 2-(methylamino)benzoate	292.15	528.15	1120.15	1.583915
85-94-9	2'-Cytidylic acid				
85-95-0	Benzestrol	437.15			
85-97-2	3-Chloro-[1,1'-biphenyl]-2-ol	279.15	592.15	1242.5	1.62373
85-98-3	N,N'-Diethylcarbanilide	344.15			
852-38-0	2-[1,1'-Biphenyl]-4-yl-5-phenyl-1,3,4-oxadiazole	441.15			
86-00-0	2-Nitrobiphenyl	310.15	593.15	1442.5	
86-08-8	3-Acetylpyridine adenine dinucleotide				
86-12-4	Thenaldine	369.15			
86-21-5	N,N-Dimethyl-γ-phenyl-2-pyridinepropanamine			1008.125	1.551925
86-22-6	Brompheniramine				
86-26-0	2-Methoxy-1,1'-biphenyl	302.15	547.15	1023.399	1.564199
86-28-2	9-Ethyl-9H-carbazole	340.15		1059.8	1.63948
86-29-3	α-Phenylbenzeneacetonitrile	347.45			
86-30-6	N-Nitrosodiphenylamine	339.85			
86-34-0	1-Methyl-3-phenyl-2,5-pyrrolidinedione	345.15			
86-35-1	Ethotoin	367.15			
86-39-5	2-Chloro-9H-thioxanthen-9-one	426.65			
86-48-6	1-Hydroxy-2-naphthalenecarboxylic acid	468.15			
86-50-0	Azinphos-methyl	345.15		1442	
86-52-2	1-(Chloromethyl)naphthalene	305.15	564.15	1181.32	1.63802
86-53-3	1-Naphthalenecarbonitrile	308.15	572.15	1108.025	1.629818
86-54-4	Hydralazine	445.15			
86-55-5	1-Naphthalenecarboxylic acid	433.95		1398.25	1.46
86-56-6	N,N-Dimethyl-1-naphthylamine		523.15	1042.32	1.62415
86-57-7	1-Nitronaphthalene	328.65		1332.2	
86-59-9	8-Quinolinecarboxylic acid	460.15			
86-60-2	7-Amino-1-naphthalenesulfonic acid				
86-65-7	7-Amino-1,3-naphthalenedisulfonic acid	547.15			
86-68-0	6-Methoxy-4-quinolinecarboxylic acid				
86-73-7	9H-Fluorene	387.91	567.15	1203	
86-74-8	Carbazole	518.15	627.75	1297.25	
86-75-9	8-Quinolinol benzoate				
86-80-6	Dimethisoquin	419.15			1.54862
86-81-7	3,4,5-Trimethoxybenzaldehyde	345.65			
86-84-0	1-Isocyanatonaphthalene		542.15	1177.42	
86-86-2	1-Naphthaleneacetamide				
86-87-3	1-Naphthaleneacetic acid	405.95			
86-88-4	1-Naphthalenylthiourea	471.15			
86-89-5	1-Pentylnaphthalene	248.65	578.15	965.62	1.57252
86-93-1	1,4-Dihydro-1-phenyl-5H-tetrazole-5-thione	418.15			
86-95-3	4-Hydroxy-2-quinolinone	626.15			
86-98-6	4,7-Dichloroquinoline	365.55			
860-22-0	5,5'-Indigodisulfonic acid, disodium salt				
865-21-4	Vinblastine	489.15			
865-36-1	Thioformaldehyde				
865-52-1	Tetramethylgermane			1006	
865-71-4	Perfluoro-3-methylpentane	157.75	331.15		
866-84-2	Tripotassium citrate				
868-18-8	Sodium tartrate				
868-59-7	L-Cysteine, ethyl ester, hydrochloride	398.95			
868-77-9	2-Hydroxyethyl methacrylate			1079.2	1.45152
868-85-9	Dimethyl hydrogen phosphite		443.35	1200.22	1.40362
869-19-2	N-Glycyl-L-leucine				
869-24-9	2-Chloro-N,N-diethylethanamine, hydrochloride	473.15			
869-29-4	3,3-Diacetoxy-1-propene	235.55	449.15	1076.02	1.41932
87-00-3	Homatropine	372.65			
87-08-1	Penicillin V				
87-10-5	3,5-Dibromo-N-(4-bromophenyl)-2-hydroxybenzamide	499.55			
87-13-8	Diethyl (ethoxymethylene)malonate				1.46002
87-17-2	2-Hydroxy-N-phenylbenzamide	409.65			
87-19-4	Isobutyl 2-hydroxybenzoate	279.05	534.15	1063.92	1.50872
87-20-7	Isopentyl salicylate		551.15	1053.52	1.50802
87-24-1	Ethyl 2-methylbenzoate	263.15	500.15	1032.521	1.50722
87-25-2	Ethyl 2-aminobenzoate	287.45	544.15	1117.42	1.56462
87-28-5	2-Hydroxyethyl 2-hydroxybenzoate	310.15		1252.615	
87-29-6	trans-Cinnamyl anthranilate	337.15			
87-33-2	Isosorbide dinitrate	325.15			
87-39-8	2,4,5,6(1H,3H)-Pyrimidinetetrone 5-oxime				
87-40-1	1,3,5-Trichloro-2-methoxybenzene	334.65	514.15	1640.25	
87-41-2	1(3H)-Isobenzofuranone	348.15	565.15	1163.699	1.53699
87-42-3	6-Chloro-1H-purine				
87-44-5	Caryophyllene			907.52	1.49862
87-47-8	Pyrolan	325.15			
87-51-4	1H-Indole-3-acetic acid	441.65			
87-52-5	N,N-Dimethyl-1H-indole-3-methanamine	411.65			
87-58-1	2,3,4,5-Tetraiodo-1H-pyrrole	428.15			
87-59-2	2,3-Dimethylaniline	276.15	496.15	993.12	1.56842
87-60-5	3-Chloro-2-methylaniline	274.15	518.15		1.58802
87-61-6	1,2,3-Trichlorobenzene	326.15	492.15	1453.325	
87-62-7	2,6-Dimethylaniline	284.15	484.15	984.22	1.56102
87-63-8	2-Chloro-6-methylaniline		488.15		
87-64-9	2-Chloro-6-methylphenol		462.15		1.54492
87-65-0	2,6-Dichlorophenol	339.75	499.15	1653.2	
87-66-1	1,2,3-Benzenetriol	398.65	580.15	1453.4	1.561134
87-68-3	Hexachloro-1,3-butadiene	252.15	489.15	1556.25	1.55422
87-69-4	L-Tartaric acid	442.15			
87-73-0	D-Glucaric acid	398.65			
87-79-6	L-Sorbose	438.15		1612.17	
87-81-0	D-Tagatose	407.65			
87-82-1	Hexabromobenzene	600.15			
87-83-2	Pentabromomethylbenzene	561.15		2971.7	
87-84-3	1,2,3,4,5-Pentabromo-6-chlorocyclohexane	477.15			
87-85-4	Hexamethylbenzene	438.75	541.15	1063.025	
87-86-5	Pentachlorophenol	462.65		1978.22	
87-87-6	2,3,5,6-Tetrachloro-1,4-benzenediol				
87-88-7	Chloranilic acid	556.65			
87-89-8	myo-Inositol	496.95		1752	
87-90-1	Symclosene				
87-92-3	Dibutyl tartrate	295.15	593.15	1090.92	1.44512
87-99-0	Xylitol	369.05	653.15		
870-23-5	2-Propene-1-thiol		338.15	925.23	1.48322
870-24-6	2-Chloroethylamine hydrochloride	419.45			
870-63-3	1-Bromo-3-methyl-2-butene		394.15	1293.015	1.493015
870-72-4	Sodium formaldehyde bisulfite				
870-93-9	Homocystine	537.15			
871-28-3	1-Penten-4-yne		315.15	738.16	1.412516
871-76-1	2,2'-Thiobisethanamine		505.15		
871-83-0	2-Methylnonane	198.85	440.15	728.12	1.40992
871-84-1	1,7-Octadiyne		408.65	816.921	1.452118
872-05-9	1-Decene	206.94	444.15	740.82	1.42152
872-10-6	Dipentyl sulfide	221.85		840.72	1.45612
872-31-1	3-Bromothiophene		422.15	1735.2	1.59192
872-36-6	1,3-Dioxol-2-one	295.15	451.15	1352.5	
872-50-4	N-Methyl-2-pyrrolidinone	249.15	477.35	1023.025	1.46842
872-53-7	Cyclopentanecarboxaldehyde		406.65	937.12	1.44322
872-55-9	2-Ethylthiophene		409.15	993.02	1.51222
872-85-5	4-Pyridinecarboxaldehyde				1.54232
872-93-5	3-Methyl sulfolane	274.15	550.15	1188.25	1.47722
873-32-5	2-Chlorobenzonitrile	316.65	508.25		
873-49-4	Cyclopropylbenzene	242.15	445.15	931.72	1.52852
873-55-2	Sodium benzenesulfinate	573.15			
873-62-1	3-Hydroxybenzonitrile	355.95			
873-66-5	trans-1-Propenylbenzene	243.55	452.15	902.325	1.55062
873-69-8	2-Pyridinecarboxaldehyde oxime	386.25			
873-74-5	4-Aminobenzonitrile	359.35			
873-76-7	4-Chlorobenzenemethanol	348.15	508.15		
873-83-6	6-Amino-2,4(1H,3H)-pyrimidinedione				
873-94-9	3,3,5-Trimethylcyclohexanone		462.15	891.919	1.445415
874-14-6	1,3-Dimethyl-2,4(1H,3H)-pyrimidinedione	392.45			
874-23-7	2-Acetylcyclohexanone	262.15		1078.225	1.51382
874-41-9	1-Ethyl-2,4-dimethylbenzene	210.25	461.15	876.32	1.50382
874-42-0	2,4-Dichlorobenzaldehyde	347.25			
874-60-2	4-Methylbenzoyl chloride	271.65	499.15	1168.62	1.55472
874-63-5	3,5-Dimethylanisole		467.15	962.715	1.51102
874-79-3	(Propylthio)benzene	228.15	492.15	999.52	1.55712
874-90-8	4-Methoxybenzonitrile	332.65	529.65		
875-30-9	1,3-Dimethyl-1H-indole	415.15	531.65		
875-51-4	4-Bromo-2-nitroaniline	384.65			
877-08-7	1,2,3,4-Tetrachloro-5,6-dimethylbenzene	501.15			
877-09-8	1,2,3,5-Tetrachloro-4,6-dimethylbenzene	496.15		1703.25	
877-11-2	2,3,4,5,6-Pentachlorotoluene	497.15	574.15		
877-24-7	Potassium hydrogen phthalate			1636.25	
877-43-0	2,6-Dimethylquinoline	330.84	541.25		
877-44-1	1,2,4-Triethylbenzene		490.15	873.82	1.50242
877-65-6	4-tert-Butylbenzenemethanol		509.15	928.25	1.51792
879-18-5	1-Naphthalenecarbonyl chloride	293.15	570.65		
879-39-0	1,2,3,4-Tetrachloro-5-nitrobenzene	339.15			
879-72-1	3-(Dimethylamino)-1-phenyl-1-propanone, hydrochloride	426.65			
879-97-0	4-tert-Butyl-2,6-dimethylphenol	355.55	521.15	916.8	
88-04-0	4-Chloro-3,5-dimethylphenol	388.15	519.15		
88-05-1	2,4,6-Trimethylaniline	268.25	505.65	963.325	1.54952
88-06-2	2,4,6-Trichlorophenol	342.65	522.15	1490.175	
88-09-5	2-Ethylbutanoic acid	241.35	466.15	923.92	1.41322
88-10-8	Diethylcarbamic chloride		459.15		
88-12-0	1-Vinyl-2-pyrrolidinone	286.65		1042	
88-13-1	3-Thiophenecarboxylic acid	412.95			
88-14-2	2-Furancarboxylic acid	403.15	504.15		
88-15-3	1-(2-Thienyl)ethanone	283.55	488.15	1167.92	1.56672
88-16-4	1-Chloro-2-(trifluoromethyl)benzene	267.15	426.15	1254.03	1.451325
88-17-5	2-(Trifluoromethyl)aniline	308.65		1282.25	1.48102
88-18-6	2-tert-Butylphenol	267.55	497.45	978.32	1.51602
88-19-7	2-Methylbenzenesulfonamide	429.45			
88-20-0	2-Methylbenzenesulfonic acid	340.65			
88-21-1	2-Aminobenzenesulfonic acid				
88-24-4	Bis(3-tert-butyl-5-ethyl-2-hydroxyphenyl)methane	396.15			
88-27-7	2,6-Di-tert-butyl-4-(dimethylaminomethyl)phenol	367.15			
88-29-9	Versalide	319.65			
88-32-4	3-tert-Butyl-4-methoxyphenol	338.15			
88-43-7	5-Amino-2-chlorobenzenesulfonic acid				
88-44-8	2-Amino-5-methylbenzenesulfonic acid				
88-51-7	2-Amino-4-chloro-5-methylbenzenesulfonic acid				
88-58-4	2,5-Di-tert-butyl-1,4-benzenediol	486.65			
88-60-8	2-tert-Butyl-5-methylphenol	319.65		922.8	1.52502
88-65-3	2-Bromobenzoic acid	422.15	568.15	1929.25	
88-67-5	2-Iodobenzoic acid	434.75		2252.5	
88-68-6	2-Aminobenzamide				
88-69-7	2-Isopropylphenol	290.15	486.99	1012.2	1.53152
88-72-2	2-Nitrotoluene	269.55	494.05	1161.119	1.54502
88-73-3	1-Chloro-2-nitrobenzene	305.25	519.35	1368.242	
88-74-4	2-Nitroaniline	344.15	558.15	901.525	
88-75-5	2-Nitrophenol	318.05	489.15	1294.24	1.57235
88-82-4	2,3,5-Triiodobenzoic acid	503.75			
88-85-7	Dinoseb	316.45		1265.45	
88-87-9	4-Chloro-2,6-dinitrophenol	354.15		1742.2	
88-88-0	2-Chloro-1,3,5-trinitrobenzene	355.15		1797.2	
88-89-1	2,4,6-Trinitrophenol	394.15			1.763
88-95-9	1,2-Benzenedicarbonyl dichloride	288.65	557.15	1408.92	1.56842
88-96-0	1,2-Benzenedicarboxamide	495.15			
88-98-2	4-Cyclohexene-1,2-dicarboxylic acid	446.15			
88-99-3	Phthalic acid	480.15		2181.91	
880-09-1	1,1'-Dipiperidinomethane		503.15	926.92	1.48202
881-03-8	2-Methyl-1-nitronaphthalene	354.65			
881-68-5	4-(Acetyloxy)-3-methoxybenzaldehyde	351.15			
882-33-7	Diphenyl disulfide	333.55	583.15	1353.2	
883-93-2	2-Phenylbenzothiazole	388.15	644.15		
883-99-8	Methyl 3-hydroxy-2-naphthalenecarboxylate	348.65	479.15		
886-50-0	Terbutryn	376.95		1115.2	
886-66-8	1,4-Diphenyl-1,3-butadiyne	359.05			
886-74-8	Chlorphenesin carbamate	363.15			
886-77-1	1,5-Di-2-furanyl-1,4-pentadien-3-one	333.65			
88671-89-0	Myclobutanil	338.15			
887-08-1	Daucol	387.15			
89-00-9	2,3-Pyridinedicarboxylic acid	501.65			
89-01-0	2,3-Pyrazinedicarboxylic acid				