CASRN	Name	Tm	Tb	rho	RI
13718-94-0	6-O-α-D-Glucopyranosyl-D-fructose				
13741-18-9	6-Isobornyl-3,4-xylenol	368.15		1024.02	1.53822
13748-90-8	2-Hydroxy-4-methylpentanoic acid, (S)-	354.65			
138-15-8	L-Glutamic acid, hydrochloride				
138-24-9	Trimethylphenylammonium chloride				
138-41-0	4-(Aminosulfonyl)benzoic acid				
138-42-1	4-Nitrobenzenesulfonic acid	368.15			
138-52-3	2-(Hydroxymethyl)phenyl-β-D-glucopyranoside	480.15		1434.2	
138-53-4	Mandelonitrile glucoside	395.15			
138-59-0	Shikimic acid	457.15			
138-65-8	dl-Norepinephrine				
138-87-4	1-Methyl-4-(1-methylvinyl)cyclohexanol	305.65	483.15	917.2	1.47472
138-89-6	p-Nitroso-N,N-dimethylaniline	358.85		1145.2	
13838-16-9	Enflurane		329.95	1512.125	1.30252
13862-07-2	2-(Diphenylmethyl)-1-piperidineethanol	379.65			
13889-92-4	S-Propyl chlorothioformate				
13898-58-3	4-(Benzoylamino)-2-hydroxybenzoic acid	533.65			
139-02-6	Sodium phenolate	657.15			
139-06-0	Calcium cyclamate				
139-13-9	Nitrilotriacetic acid				
139-25-3	3,3'-Dimethyldiphenylmethane 4,4'-diisocyanate				
139-40-2	Propazine	490.15		1162.2	
139-45-7	Glycerol tripropanoate			1108.15	1.431819
139-59-3	4-Phenoxyaniline	358.65			
139-65-1	4,4'-Diaminodiphenyl sulfide	381.65			
139-66-2	Diphenyl sulfide	257.8	567.35	1113.62	1.63342
139-85-5	3,4-Dihydroxybenzaldehyde				
139-87-7	N,N-Bis(2-hydroxyethyl)ethylamine	223.15	521.15	1013.52	1.46632
139-89-9	Trisodium N-hydroxyethylethylenediaminetriacetate	561.15			
139-93-5	Salvarsan dihydrochloride				
13905-48-1	1-Bromo-3-methylcyclohexane		454.15	1267.615	1.49792
13909-09-6	1-(2-Chloroethyl)-3-(4-methylcyclohexyl)-1-nitrosourea				
13912-77-1	Octacaine	320.15			
13925-00-3	2-Ethylpyrazine				
13927-77-0	Nickel bis(dibutyldithiocarbamate)	364.15			
13928-81-9	Bephenium chloride	408.15			
13939-06-5	Molybdenum carbonyl	421.15		1960	
13956-29-1	Cannabidiol	340.15		1040.4	1.54042
1397-89-3	Amphotericin B				
13984-57-1	Ethyl 5-oxohexanoate		494.65	989.25	1.42772
13993-65-2	10-Methyl-10H-phenothiazine-2-acetic acid	417.15			
140-07-8	N,N,N',N'-Tetrakis(2-hydroxyethyl)-1,2-ethanediamine				
140-08-9	Tris(2-chloroethyl) phosphite			1344.326	1.48682
140-10-3	trans-Cinnamic acid	407.15	573.15	1247.54	
140-11-4	Benzyl acetate	221.65	488.15	1055.02	1.52322
140-18-1	Benzyl chloroacetate			1222.34	1.542618
140-22-7	2,2'-Diphenylcarbonic dihydrazide	443.15			
140-25-0	Benzyl dodecanoate	281.65		942.925	1.481224
140-28-3	N,N'-Dibenzyl-1,2-ethanediamine	299.15		1024.2	1.56352
140-29-4	Benzeneacetonitrile	251.05	505.15	1020.515	1.521125
140-31-8	1-Piperazineethanamine		498.15	985.25	1.49832
140-39-6	4-Methylphenyl acetate		486.15	1051.217	1.516322
140-40-9	N-(5-Nitro-2-thiazolyl)acetamide	537.65			
140-49-8	4-(2-Chloroacetyl)acetanilide	491.15			
140-53-4	4-Chlorobenzeneacetonitrile	302.15	538.15	1177.83	
140-55-6	trans-6-Propyl-3-piperidinol, (3S)-	379.15	509.15		
140-56-7	Dexon				
140-57-8	Aramite	235.85		1143.2	1.51002
140-65-8	4-[3-(4-Butoxyphenoxy)propyl]morpholine				
140-66-9	4-(1,1,3,3-Tetramethylbutyl)phenol	358.15	552.15		
140-67-0	1-Methoxy-4-(2-propenyl)benzene		489.15	965.25	1.51952
140-72-7	1-Hexadecylpyridinium bromide	334.15			
140-75-0	4-Fluorobenzenemethanamine		456.15		1.51392
140-77-2	Cyclopentanepropanoic acid			1010.017	1.45702
140-79-4	1,4-Dinitrosopiperazine	429.05			
140-80-7	N',N'-Diethyl-1,4-pentanediamine		474.15	814.2	1.44292
140-82-9	2-[2-(Diethylamino)ethoxy]ethanol		494.65	942.125	1.44802
140-87-4	Cyanoacetohydrazide	387.65			
140-88-5	Ethyl acrylate	202.15	372.05	923.42	1.40682
140-93-2	Sodium O-isopropyl xanthate				
140-95-4	Oxymethurea	411.15			
14002-51-8	[1,1'-Biphenyl]-4-carbonyl chloride	384.15			
14007-64-8	2-(Diethylamino)ethyl 2-phenylbutanoate				1.49092
1401-55-4	Tannic acid				
14024-00-1	Vanadium carbonyl				
14024-18-1	Iron(III) 2,4-pentanedioate	461.15		5240	
14024-48-7	Cobalt(II) 2,4-pentanedioate	440.15			
14024-63-6	Zinc 2,4-pentanedioate	400.45			
14040-11-0	Tungsten carbonyl			2650	
1405-86-3	Glycyrrhizic acid				
14062-18-1	Ethyl (4-methoxyphenyl)acetate			1097.25	1.50752
14064-10-9	Diethyl chloromalonate		495.15	1204.02	1.43272
14068-53-2	5-Ethyl-1,3,4-thiadiazol-2-amine	473.95			
14073-00-8	3-Methyl-4-nitroquinoline-N-oxide	452.15			
14073-97-3	trans-2-Isopropyl-5-methylcyclohexanone, (2S)-	267.15	480.15	895.42	1.45052
141-03-7	Dibutyl succinate	243.95	542.15	975.22	1.42992
141-04-8	Diisobutyl hexanedioate		561.15	954.319	1.43012
141-05-9	Diethyl maleate	264.35	495.15	1066.22	1.44162
141-06-0	Propyl pentanoate	202.45	440.15	869.92	1.40652
141-10-6	6,10-Dimethyl-3,5,9-undecatrien-2-one			898.42	1.53352
141-12-8	cis-3,7-Dimethyl-2,6-octadien-1-ol acetate			905.15	1.4522
141-17-3	Bis(2-(2-butoxyethoxy)ethyl) hexanedioate			1125	
141-20-8	Diethylene glycol monododecanoate	290.65		962.5	
141-22-0	cis-12-Hydroxy-9-octadecenoic acid, (R)-	264.87		945.021	1.471621
141-27-5	trans-3,7-Dimethyl-2,6-octadienal		502.15	888.82	1.48982
141-28-6	Diethyl hexanedioate	253.15	523.15	1007.62	1.42722
141-30-0	3,6-Dichloropyridazine	341.95			
141-32-2	Butyl acrylate	209.55	419.75	889.82	1.41852
141-43-5	Ethanolamine	283.55	443.45	1018.02	1.45412
141-46-8	Glycolaldehyde	370.15		1366.1	1.477219
141-52-6	Sodium ethanolate				
141-57-1	Trichloropropylsilane		396.65	1195.2	1.43102
141-59-3	2,4,4-Trimethyl-2-pentanethiol				
141-62-8	Decamethyltetrasiloxane	197.15	467.55	853.625	1.38952
141-63-9	Dodecamethylpentasiloxane	193.15	503.05	875.52	1.39252
141-66-2	Dicrotophos		673.15	1216.15	
141-75-3	Butanoyl chloride	184.15	374.15	1027.72	1.41212
141-76-4	3-Iodopropanoic acid	358.15			
141-78-6	Ethyl acetate	189.35	350.25	900.32	1.37232
141-79-7	Mesityl oxide	220.35	402.85	865.32	1.44402
141-82-2	Malonic acid	408.15		1619.1	
141-83-3	(Aminoiminomethyl)urea	378.15			
141-84-4	2-Thioxo-4-thiazolidinone	443.15		868.25	
141-85-5	3-Chloroaniline hydrochloride	495.15			
141-86-6	2,6-Pyridinediamine	395.15	558.15		
141-90-2	2,3-Dihydro-2-thioxo-4(1H)-pyrimidinone				
141-91-3	2,6-Dimethylmorpholine	185.15	420.15	932.92	1.44602
141-93-5	m-Diethylbenzene	189.25	454.25	860.22	1.49552
141-97-9	Ethyl acetoacetate	228.15	453.15	1036.81	1.41712
14116-69-9	6-O-α-L-Arabinopyranosyl-D-Glucose				
1415-73-2	Aloin A	422.45			
14165-55-0	Tetraethoxygermane				
14167-18-1	Salcomine				
14167-59-0	Tetratriacontane	345.95		772.89	1.42969
142-04-1	Aniline hydrochloride	471.15		1221.54	
142-08-5	2(1H)-Pyridinone	379.15	553.15	1391.02	
142-09-6	Hexyl methacrylate		435.15	880.25	1.42925
142-16-5	Di-2-ethylhexyl maleate			942	
142-22-3	Diallyl diethylene glycol carbonate	269.15		1142	
142-26-7	N-Acetylethanolamine	336.65		1107.925	1.46742
142-28-9	1,3-Dichloropropane	173.65	393.95	1178.525	1.445525
142-29-0	Cyclopentene	138.13	317.35	772.02	1.42252
142-30-3	2,5-Dimethyl-3-hexyne-2,5-diol	368.15	479.15	947.2	
142-45-0	2-Butynedioic acid	439.15			
142-46-1	2,5-Dithiobiurea	487.15			
142-47-2	Monosodium L-glutamate				
142-50-7	cis-Nerolidol		549.15	877.82	1.48982
142-59-6	Nabam				
142-60-9	Octyl propanoate	231.55	499.15	866.32	1.422115
142-61-0	Hexanoyl chloride	186.15	426.15	978.42	1.42642
142-62-1	Hexanoic acid	269.05	478.05	921.225	1.41632
142-64-3	Piperazine dihydrochloride				
142-68-7	Tetrahydropyran	224.05	361.15	881.42	1.42002
142-73-4	Iminodiacetic acid	520.65			
142-77-8	Butyl oleate	246.75		870.415	1.448025
142-78-9	N-(2-Hydroxyethyl)dodecanamide	361.65			
142-79-0	Heptanedioyl dichloride				
142-82-5	Heptane	182.601	371.53	679.525	1.385525
142-83-6	trans,trans-2,4-Hexadienal	256.65	447.15	898.2	1.53842
142-84-7	Dipropylamine	210.15	380.65	740.02	1.40502
142-90-5	Dodecyl methacrylate			866.2	
142-91-6	Isopropyl palmitate	285.95		840.438	1.436425
142-92-7	Hexyl acetate	212.15	444.25	877.915	1.40922
142-95-0	Octylamine hydrochloride	469.65			
142-96-1	Dibutyl ether	177.15	414.75	768.42	1.39922
1420-06-0	Trifenmorph	449.15			
1420-07-1	2-tert-Butyl-4,6-dinitrophenol	399.15			
1420-55-9	Thiethylperazine	336.15			
14200-76-1	Vacciniin	395.15			
14205-39-1	Methyl 3-amino-2-butenoate				
1421-14-3	Propanidid				
1421-63-2	1-(2,4,5-Trihydroxyphenyl)-1-butanone	426.95			
1421-69-8	Benzyloxycarbonylglycyl-L-leucine	373.15			
14210-25-4	5-Chloro-1-phenyltetrazole	396.15			
14221-47-7	Ammonium ferric oxalate				
14222-60-7	2-Propyl-4-pyridinecarbothioamide	409.85			
1423-60-5	3-Butyn-2-one		357.15	879.32	1.40702
14239-68-0	Cadmium bis(diethyldithiocarbamate)	528.15			
14255-88-0	Lovozal	376.15			
14261-75-7	Cloforex	325.95			
14267-17-5	Bis(diethyldithiocarbamate)nickel				
14268-66-7	1,3-Benzodioxol-5-amine	315.15			
14284-06-1	Copper(II) ethylacetoacetate	465.15			
14284-93-6	Ruthenium(III) 2,4-pentanedioate	503.15			
14285-68-8	Rhenium carbonyl			2870	
14290-92-7	tert-Butyl ethyl sulfide	187.25	393.55		
143-06-6	Hexamethylenediamine carbamate	423.15			
143-07-7	Dodecanoic acid	316.97	572.15	867.95	1.418382
143-08-8	1-Nonanol	268.15	486.85	828.02	1.43332
143-10-2	1-Decanethiol	247.86	513.15	844.32	1.45092
143-13-5	Nonyl acetate	247.15	498.15	878.515	1.4262
143-15-7	1-Bromododecane	263.55	548.15	1039.92	1.45832
143-16-8	Dihexylamine	260.15	509.15	788.92	1.43392
143-18-0	Potassium cis-9-octadecenoate				
143-22-6	2-[2-(2-Butoxyethoxy)ethoxy]ethanol		551.15	989.02	1.43892
143-24-8	Tetraethylene glycol dimethyl ether		547.15	1011.42	
143-27-1	Hexadecylamine	319.15	594.15	812.92	1.44962
143-28-2	cis-9-Octadecen-1-ol	273.15		848.92	1.46062
143-37-3	Ethanimidamide	238.15			
143-50-0	Kepone			1612.5	
143-62-4	Digitoxigenin	526.15			
143-66-8	Sodium tetraphenylborate	573.15			
143-74-8	Phenol Red	573.15			
14320-37-7	3-Cyclopenten-1-one				
14321-27-8	Benzylethylamine		467.15	934.217	1.51172
14324-55-1	Bis(diethyldithiocarbamate)zinc				
14334-40-8	N-Isopropyl-4,4-diphenylcyclohexanamine	343.15			
1435-55-8	Hydroquinidine	441.65			
1436-59-5	cis-1,2-Cyclohexanediamine			952.2	1.49512
14371-10-9	trans-Cinnamaldehyde	265.65	519.15	1049.72	1.61952
1438-16-0	N-Amino-2-thioxo-4-thiazolidinone	374.65			
144-11-6	α-Cyclohexyl-α-phenyl-1-piperidinepropanol	387.15			
144-14-9	Anileridine	356.15			
144-19-4	2,2,4-Trimethyl-1,3-pentanediol	328.35	503.25	936.15	1.451315
144-33-2	Disodium hydrogen citrate				
144-48-9	2-Iodoacetamide	366.15			
144-49-0	Fluoroacetic acid	308.35	441.15	1369.336	
144-62-7	Oxalic acid			1900.17	
144-68-3	β,β-Carotene-3,3'-diol, (3R,3'R)-	488.65			
144-79-6	Chloromethyldiphenylsilane		569.15	1127.72	1.57422
144-80-9	N-[(4-Aminophenyl)sulfonyl]acetamide	455.15			
144-82-1	Sulfamethiazole	483.15			
144-83-2	4-Amino-N-2-pyridinylbenzenesulfonamide	463.15			
144-90-1	L-3-Amino-2-methylpropanoic acid	458.15			
1441-87-8	2-Hydroxybenzoyl chloride	292.15		1311.22	1.58122
14417-88-0	Melinamide	277.15			1.505023
14436-32-9	9-Decenoic acid	299.65		923.815	1.450715
1445-45-0	1,1,1-Trimethoxyethane		382.15	943.825	1.385925
1445-73-4	1-Methyl-4-piperidinone			971.25	1.458025
1445-75-6	Diisopropyl methylphosphonate				1.412016
1445-79-0	Trimethylgallium		328.85		
14452-30-3	1-(3-Iodophenyl)ethanone				1.6222
14459-29-1	Hematoporphyrin	445.65			
1446-61-3	19-Amino-8,11,13-abietatriene	317.65			
14473-90-6	trans-m-Chlorocinnamic acid	438.15			
14476-30-3	1,2,2-Tribromopropane		463.65	2298.42	1.56702
14484-64-1	Ferbam				
1449-65-6	Methylgermane	115.15	250.15		
145-13-1	Pregnenolone	465.15			
145-50-6	p-Naphtholbenzein	396.15			
145-94-8	7-Chloro-2,3-dihydro-1H-inden-4-ol	365.15			
1450-14-2	Hexamethyldisilane	287.55	385.8	724.722	1.42292
1450-31-3	Diphenylmethanethione	326.65			
1450-63-1	1,1,4,4-Tetraphenyl-1,3-butadiene	476.65			
1450-72-2	1-(2-Hydroxy-5-methylphenyl)ethanone	323.15	483.15	1079.753	
1452-15-9	4-Cyanothiazole	331.15			
1452-77-3	2-Pyridinecarboxamide	381.45			
14523-22-9	Rhodium carbonyl chloride	397.15			
1453-24-3	1-Ethylcyclohexene	163.25	409.15	817.625	1.45672
1453-58-3	3-Methyl-1H-pyrazole	309.65	477.15	1020.316	1.49152
1453-82-3	4-Pyridinecarboxamide	429.15			
1454-80-4	[1,1'-Biphenyl]-2,2'-diamine	354.15		1309.02	
1454-84-8	1-Nonadecanol	334.55	618.15		1.432875
1454-85-9	1-Heptadecanol	326.15	597.15	847.52	
14545-08-5	Iodoacetylene		305.15		
14548-46-0	Phenyl-4-pyridinylmethanone	348.15	588.15		
1455-20-5	2-Butylthiophene		452.15	953.72	1.50902
1455-21-6	1-Nonanethiol	253.05	493.15	842.25	1.45482
1455-77-2	1H-1,2,4-Triazole-3,5-diamine	484.65			
1457-46-1	3-Phenyl-2-thioxo-4-thiazolidinone	467.65			
1458-98-6	3-Bromo-2-methylpropene		365.15	1313.2	
1458-99-7	4-Chloro-2-pentene		370.15	898.82	1.43222
1459-09-2	Hexadecylbenzene	299.55	658.15	854.72	1.48132
1459-10-5	Tetradecylbenzene	282.85	620.15	854.92	1.48182
1459-93-4	Dimethyl isophthalate	341.15	558.25	1194.2	1.51682
14595-35-8	Dipropyl fumarate			1012.92	1.44352
14596-92-0	cis-1,3-Hexadiene		346.15	703.325	1.43792
146-14-5	Flavine adenine dinucleotide				
146-17-8	Riboflavin-5'-phosphate				
146-48-5	Yohimbine	514.15			
146-54-3	Triflupromazine				1.578023
146-80-5	Xanthosine				
146-91-8	Guanosine 5'-diphosphate				
14602-62-1	1,1,2-Tribromopropane		472.15	2354.72	1.57902
14609-79-1	2,2,4,4-Tetramethyl-3-pentanol	322.15	439.15		
1461-25-2	Tetrabutylstannane	176.15		1062	
1462-03-9	1-Methylcyclopentanol	308.55	409.15	904.423	1.442923
1462-12-0	Diethyl ethylidenemalonate			1040.42	1.430817
1462-84-6	2,3,6-Trimethylpyridine		443.15	922.025	1.50532
14620-52-1	1,1-Dimethoxydodecane				1.431025
1463-10-1	5-Methyluridine	457.15			
14630-40-1	1,2-Bis(trimethylsilyl)acetylene	299.15	407.15	770.2	1.4132
1464-42-2	Selenium methionine				
1464-53-5	2,2'-Bioxirane	275.15	417.15	1113.2	1.4352
14641-93-1	α-Lactose	495.95			
1465-25-4	N-(1-Naphthalenyl)-1,2-ethanediamine, dihydrochloride	462.15			
1466-67-7	N,N'-Dibenzylurea	443.15			
1466-76-8	2,6-Dimethoxybenzoic acid				
14660-52-7	Ethyl 5-bromopentanoate			1308.52	1.45432
14667-55-1	Trimethylpyrazine				
1467-05-6	1-(Chloromethyl)-4-ethylbenzene				1.529025
1467-79-4	Dimethylcyanamide		435.15		1.408919
1468-39-9	3-Methylbutanoic anhydride		488.15	932.72	1.40432
1468-95-7	9-Anthracenemethanol	433.65			
14686-13-6	trans-2-Heptene	163.68	371.15	701.22	1.40452
14686-14-7	trans-3-Heptene	136.51	369.15	698.12	1.40432
14698-29-4	Oxolinic acid				
147-14-8	Copper(II) phthalocyanine				
147-47-7	1,2-Dihydro-2,2,4-trimethylquinoline	299.65	533.15		
147-71-7	D-Tartaric acid	445.65		1759.82	1.49552
147-73-9	meso-Tartaric acid	420.15		1666.2	
147-82-0	2,4,6-Tribromoaniline	394.15	573.15	2352	
147-85-3	L-Proline				
147-93-3	2-Mercaptobenzoic acid	441.65			
147-94-4	Cytarabine	485.15			
1470-94-6	2,3-Dihydro-1H-inden-5-ol	331.15	526.15		
1471-03-0	3-Propoxy-1-propene		364.15	776.42	1.39192
14721-66-5	3,7,11,15-Tetramethylhexadecanoic acid	208.15			
14752-75-1	Heptadecylbenzene	292.85	675.15	854.62	1.48102
1476-11-5	cis-1,4-Dichloro-2-butene	231.15	422.15	1188.25	1.488725
1476-23-9	Allyl isocyanate		361.15		
1477-55-0	1,3-Benzenedimethanamine		520.15	1052.2	
148-01-6	2-Methyl-3,5-dinitrobenzamide	454.15			
148-03-8	β-Tocopherol				
148-18-5	Sodium diethyldithiocarbamate	368.15			
148-24-3	8-Quinolinol	347.15	540.15	1034.2	
148-25-4	4,5-Dihydroxy-2,7-naphthalenedisulfonic acid				
148-53-8	2-Hydroxy-3-methoxybenzaldehyde	313.65	538.65		
148-56-1	Flumethiazide	579.15			
148-65-2	Chlorothen			1175.125	
148-72-1	Pilocarpine, mononitrate	451.15			
148-75-4	3-Hydroxy-2,7-naphthalenedisulfonic acid				
148-79-8	Thiabendazole				
148-82-3	Melphalan				
1482-91-3	1,3,5,7-Octatetraene	323.15	400.15		
1484-12-4	9-Methyl-9H-carbazole	362.47	616.95		
1484-13-5	9-Vinyl-9H-carbazole	339.15			
1484-84-0	2-Piperidineethanol	342.15	477.15	1012.7	
1484-85-1	1,3-Benzodioxole-5-ethanamine			1225.2	1.56202
14850-22-7	cis-3-Octene	147.15	396.15	715.92	1.41352
14850-23-8	trans-4-Octene	179.35	395.55	714.12	1.41142
14855-76-6	Methyl Green				
14857-34-2	Ethoxydimethylsilane		327.15	762	
1486-75-5	trans-Cyclododecene				1.48502
1487-18-9	2-Vinylfuran	179.15	374.15	944.519	1.499219
14882-18-9	Bismuth subsalicylate				
1489-57-2	2-Methyl-1,3-cyclohexadiene		383.15	826.018	1.466218
1489-69-6	Cyclopropanecarboxaldehyde		373.15	938	1.42982
149-29-1	4-Hydroxy-4H-furo[3,2-c]pyran-2(6H)-one	384.15			
149-30-4	2(3H)-Benzothiazolethione	455.15		1422	
149-32-6	1,2,3,4-Butanetetrol	391.25	603.65	1451.2	
149-44-0	Sodium formaldehydesulfoxylate	336.15			
149-57-5	2-Ethylhexanoic acid		500.65	903.125	1.42412
149-73-5	Trimethoxymethane	288.15	373.15	967.62	1.37932
149-74-6	Dichloromethylphenylsilane		479.15	1186.62	1.51802
149-91-7	3,4,5-Trihydroxybenzoic acid	535.15		1694.6	
14901-08-7	Cycasin				
1491-59-4	Oxymetazoline	455.15			
14919-01-8	trans-3-Octene	163.15	396.35	715.22	1.41262
1492-24-6	L-2-Aminobutanoic acid				
14929-11-4	Simfibrate	325.15			
1493-02-3	Formyl fluoride	130.95	246.65		
1493-13-6	Trifluoromethanesulfonic acid	318.15	435.15		
1493-27-2	1-Fluoro-2-nitrobenzene	267.15		1328.518	1.548917
14930-96-2	Cytochalasin B	492.15			
14938-35-3	4-Pentylphenol	291.15	523.65	960.2	1.527225
1495-50-7	Cyanogen fluoride	191.15	227.15		
1497-68-3	O-Ethyl ethylthiophosphonyl chloride			1152	
14976-57-9	Clemastine fumarate	454.15			
14979-39-6	4-Methyl-3-heptanol	150.15	430.15	827.25	1.43002
1498-51-7	Ethyl phosphorodichloridate				1.43382
1499-10-1	9,10-Diphenylanthracene	510.15			
150-13-0	Aniline-4-carboxylic acid	461.35		1374.2	
150-19-6	3-Methoxyphenol	256.15		1131.25	1.55102
150-25-4	N,N-Bis(2-hydroxyethyl)glycine				
150-39-0	N-(2-Hydroxyethyl)ethylenediaminetriacetic acid				
150-46-9	Triethyl borate	188.35	391.05	854.62	1.37492
150-50-5	Merphos	373.15		1022	
150-59-4	Alverine				
150-60-7	Dibenzyl disulfide	341.75			
150-61-8	N,N'-Diphenyl-1,2-ethanediamine	347.15			
150-68-5	N'-(4-Chlorophenyl)-N,N-dimethylurea	441.45			
150-69-6	(4-Ethoxyphenyl)urea	446.65			
150-76-5	4-Methoxyphenol	327.15	526.15		
150-77-6	N,N,N',N'-Tetraethyl-1,2-ethanediamine		465.15	808.25	1.43432
150-78-7	1,4-Dimethoxybenzene	329.35	486.15	1037.555	
150-84-5	3,7-Dimethyl-6-octen-1-ol, acetate				
150-86-7	Phytol			849.725	1.459525
1501-27-5	Monomethyl glutarate			1169.25	1.43812
1501-60-6	cis-2-Methyl-1,3-pentadiene	155.55	353.15	714.25	1.4462
15014-25-2	Dibenzyl malonate			1137.25	1.54472
1502-05-2	Cyclodecanol	315.15		960.62	1.49262
1502-06-3	Cyclodecanone	296.15		965.42	1.48062
1502-22-3	2-(1-Cyclohexen-1-yl)cyclohexanone				1.50702
1503-53-3	2-(Acetyloxy)-5-bromobenzoic acid	333.15			
1504-58-1	3-Phenyl-2-propyn-1-ol			1078.2	1.587328
151-01-9	O-Ethyl dithiocarbonate	220.15	298.15		
151-10-0	1,3-Dimethoxybenzene	237.85	489.15	1052.125	1.52312
151-13-3	Butyl cis-12-hydroxy-9-octadecenoate, (R)-			905.822	1.456622
151-18-8	3-Aminopropanenitrile		458.15	958.42	1.43962
151-19-9	3,6-Dimethyl-3-octanol	205.65	471.15	834.722	1.43702
151-21-3	Sodium dodecyl sulfate	478.15			
151-32-6	Dinonyl hexanedioate				
151-38-2	Methoxyethylmercuric acetate	315.15			
151-41-7	Dodecyl sulfate				
151-56-4	Ethyleneimine	195.15	327.15	832.25	
151-67-7	2-Bromo-2-chloro-1,1,1-trifluoroethane		323.15	1856.325	1.3697
1511-62-2	Bromodifluoromethane	128.15	257.55	1551.6	
15111-56-5	Ethyl 3-cyclohexene-1-carboxylate		467.65	968.82	1.45782
15121-84-3	2-Nitrobenzeneethanol	274.15	540.15	1192.5	1.56372
1515-76-0	1,3-Butadien-1-ol acetate			945.25	1.46902
1515-95-3	1-Ethyl-4-methoxybenzene		469.15	962.415	1.51202
1516-80-9	Ethoxytriphenylsilane	338.15	617.15		
15164-44-0	4-Iodobenzaldehyde	350.65	538.15		
1517-05-1	2-Azidoethanol			1146.24	
1517-63-1	4-Methyl-α-phenylbenzenemethanol	326.15			
1518-62-3	2,4-Dihydroxybutanoic acid				
1518-86-1	4-(2-Aminopropyl)phenol, (±)-	398.65			
1519-36-4	1,4-Dimethyl-9,10-anthracenedione	413.65			
152-02-3	Levallorphan	454.15			
152-16-9	Schradan	290.15		1092.5	1.46225
152-58-9	17,21-Dihydroxypregn-4-ene-3,20-dione	488.15			
152-62-5	Dydrogesterone	445.15			
152-72-7	Acenocoumarol	471.15			
152-93-2	Vicine				
152-95-4	Sophoricoside	547.15			
1520-21-4	4-Vinylaniline	296.65		1010.2	1.625022
1520-42-9	1,1,2-Triphenylethane	327.65			
15206-55-0	α-Oxobenzeneacetic acid, methyl ester		520.15		1.52682
1521-51-3	3-Bromocyclohexene			1389.02	1.53202
1522-22-1	Hexafluoroacetylacetone		342.15	1485.2	1.33332