CASRN	Name	Tm	Tb	rho	RI
6125-24-2	(2-Nitroethyl)benzene	250.15	523.15	1126.24	1.540719
613-03-6	1,2,4-Benzenetriol triacetate	372.15	573.15		
613-08-1	2-Anthracenecarboxylic acid	554.15			
613-12-7	2-Methylanthracene	482.15	613.15	1800	
613-13-8	2-Anthracenamine	511.95			
613-29-6	N,N-Dibutylaniline	240.95	547.95	903.72	1.51862
613-31-0	9,10-Dihydroanthracene	382.15	578.15	1215.2	
613-33-2	4,4'-Dimethylbiphenyl	394.05	567.15	917.121	
613-35-4	N,N'-Diacetyl-4,4'-diaminobiphenyl	601.45			
613-37-6	4-Methoxy-1,1'-biphenyl	363.15		1027.81	1.57441
613-42-3	4-Benzyl-1,1'-biphenyl	358.15		1171	
613-45-6	2,4-Dimethoxybenzaldehyde	345.15	563.15		
613-46-7	2-Naphthalenecarbonitrile	332.15	580.15	1075.56	
613-48-9	N,N-Diethyl-4-methylaniline		502.15	924.216	
613-50-3	6-Nitroquinoline	421.15			
613-69-4	2-Ethoxybenzaldehyde	294.15	521.15		
613-70-7	2-Methoxyphenyl acetate	304.65		1128.525	1.510125
613-75-2	2-Furanmethanediol diacetate	325.15	493.15		
613-78-5	2-Naphthyl 2-hydroxybenzoate	368.65		1111.16	
613-84-3	2-Hydroxy-5-methylbenzaldehyde	328.25	490.65	1091.359	1.54759
613-89-8	2-Amino-1-phenylethanone	293.15	524.15		1.61602
613-90-1	α-Oxobenzeneacetonitrile	305.65	479.15		
613-91-2	1-Phenylethanone oxime	333.15	518.15	1051.578	
613-93-4	N-Methylbenzamide	347.45	567.15		
613-94-5	Benzohydrazide	388.15			
613-97-8	N-Ethyl-N-methylaniline		477.15	925.5	
6130-75-2	1,2,4-Trichloro-5-methoxybenzene	350.65	527.15		
6138-90-5	trans-1-Bromo-3,7-dimethyl-2,6-octadiene			1094.022	1.50272
6139-84-0	4-Chlorobutanal			1106.8	1.44668
614-00-6	N-Methyl-N-nitrosoaniline	287.85		1124.02	1.57692
614-16-4	β-Oxobenzenepropanenitrile	353.65			
614-17-5	N-Ethylbenzamide	343.65			
614-18-6	Ethyl 3-pyridinecarboxylate	281.65	494.15	1107.02	1.50242
614-21-1	2-Nitro-1-phenylethanone	378.15			1.54683
614-26-6	4,4'-Dichloroazoxybenzene	431.15			
614-27-7	Methyl benzoylacetate			1158.29	1.5372
614-29-9	α-Phenylbenzeneethanol	326.15		1036.07	
614-30-2	N-Methyl-N-phenylbenzenemethanamine				
614-33-5	Glycerol tribenzoate	349.15		1228.12	
614-34-6	4-Methylphenyl benzoate	344.65	589.15		
614-39-1	Procainamide hydrochloride	439.15			
614-45-9	tert-Butyl peroxybenzoate			1021.25	1.49902
614-47-1	trans-1,3-Diphenyl-2-propen-1-one	329.15		1071.262	
614-61-9	2-Chlorophenoxyacetic acid	421.65			
614-68-6	1-Isocyanato-2-methylbenzene		458.15		1.52822
614-75-5	2-Hydroxybenzeneacetic acid	420.15	513.15		
614-78-8	(2-Methylphenyl)thiourea	435.15			
614-80-2	N-(2-Hydroxyphenyl)acetamide	482.15			
614-96-0	5-Methyl-1H-indole	334.15	540.15	1020.278	
614-99-3	Ethyl 2-furancarboxylate	307.65	469.95	1117.421	1.479721
6140-65-4	1-Cyclopentene-1-carboxaldehyde	241.15	419.15	970.21	1.487217
6145-31-9	1,2-Ethanediphosphonic acid	496.15			
615-05-4	4-Methoxy-1,3-benzenediamine	340.65			
615-13-4	1,3-Dihydro-2H-inden-2-one	331.15		1071.269	1.53867
615-15-6	2-Methyl-1H-benzimidazole	451.45			
615-16-7	1,3-Dihydro-2H-benzimidazol-2-one				
615-18-9	2-Chlorobenzoxazole	280.15	474.65	1345.318	1.56782
615-20-3	2-Chlorobenzothiazole	297.15	521.15	1371.51	1.63381
615-21-4	2(3H)-Benzothiazolone, hydrazone	475.95			
615-22-5	2-(Methylthio)benzothiazole	325.15			
615-28-1	1,2-Benzenediamine, dihydrochloride				
615-36-1	2-Bromoaniline	304.05	502.15	1578.2	1.61132
615-37-2	1-Iodo-2-methylbenzene		484.65	1713.2	1.60792
615-38-3	cis-2-Methylcyclohexanol	280.15	438.15	936.02	1.46402
615-39-4	trans-2-Methylcyclohexanol, (±)-	271.15	441.55	924.72	1.46162
615-41-8	1-Chloro-2-iodobenzene	273.85	507.65	1951.525	1.633125
615-42-9	o-Diiodobenzene	296.65	560.15	2542	1.71792
615-43-0	2-Iodoaniline	329.65			
615-54-3	1,2,4-Tribromobenzene	317.65	548.15		
615-57-6	2,4-Dibromoaniline	352.65		2260.2	
615-58-7	2,4-Dibromophenol	313.15	511.65	2070.02	
615-59-8	1,4-Dibromo-2-methylbenzene	279.15	509.15	1812.717	1.598218
615-60-1	4-Chloro-1,2-dimethylbenzene	267.15	463.15	1068.215	
615-62-3	3-Chloro-4-methylphenol	328.65	501.15		
615-65-6	2-Chloro-4-methylaniline	280.15	493.15	1151.2	1.574822
615-66-7	2-Chloro-1,4-benzenediamine	337.15			
615-67-8	2-Chloro-1,4-benzenediol	381.15	536.15		
615-74-7	2-Chloro-5-methylphenol	319.15	471.15	1215.15	
615-79-2	Ethyl 2,4-dioxopentanoate	291.15	487.15	1125.12	1.475717
615-81-6	Diisopropyl oxalate		462.15	1002.2	1.41002
615-83-8	Ethyl 2-bromopentanoate		464.15	1226.18	1.44962
615-93-0	2,5-Dichloro-2,5-cyclohexadiene-1,4-dione	435.45			
615-94-1	2,5-Dihydroxy-2,5-cyclohexadiene-1,4-dione	484.15			
615-98-5	Dipropyl oxalate	228.85	485.15	1018.82	1.41582
615-99-6	Diallyl oxalate		490.15	1158.22	1.44812
6152-67-6	Diphenylamine-4-sulfonic acid, sodium salt				
6153-56-6	Oxalic acid dihydrate	374.65		1653.18	
61531-45-1	Pentyl nonanoate	246.15		850.625	1.43182
6156-25-8	Tetrakis(methylthio)methane				
6158-45-8	1-Isopropylnaphthalene	257.55	544.15	995.62	1.59522
6159-44-0	Uranyl acetate dihydrate			2890	
6159-55-3	L-Vasicine	484.65			
6159-56-4	DL-Vasicine	483.95			
616-02-4	3-Methyl-2,5-furandione	279.15	486.65	1246.916	1.471021
616-06-8	DL-Norleucine			1172.25	
616-12-6	3-Methyl-trans-2-pentene	134.65	340.82	693.025	1.40452
616-20-6	3-Chloropentane	168.15	368.15	873.12	1.40822
616-21-7	1,2-Dichlorobutane		397.05	1111.625	1.44502
616-23-9	2,3-Dichloro-1-propanol		449.15	1360.72	1.48192
616-24-0	3-Pentanamine		362.15	748.72	1.40632
616-25-1	1-Penten-3-ol		391.15	839.2	1.42392
616-29-5	1,3-Diamino-2-propanol	315.95			
616-31-9	3-Pentanethiol	162.35	389.15	841.02	1.44472
616-38-6	Dimethyl carbonate	272.15	363.26	1063.625	1.36872
616-39-7	Diethylmethylamine	77.15	339.05	703.25	1.387925
616-42-2	Dimethyl sulfite		399.15	1212.92	1.40832
616-43-3	3-Methylpyrrole	224.75	416.15		1.49702
616-44-4	3-Methylthiophene	204.24	388.55	1021.82	1.52042
616-45-5	2-Pyrrolidone	299.07	524.35	1120.2	1.48063
616-47-7	1-Methylimidazol	267.15	468.65	1032.52	1.49702
616-55-7	2,4-Di-tert-butyl-6-methylphenol	324.15	542.15	891.8	
616-68-2	Trimecaine	317.15			
616-79-5	2-Amino-5-nitrobenzoic acid	551.15			
616-91-1	N-Acetyl-L-cysteine	382.65			
6163-58-2	Tris(2-methylphenyl)phosphine	400.15			
6163-64-0	tert-Butyl methyl sulfide		372.05		
6163-66-2	Di-tert-butyl ether		380.25	765.82	1.39492
6164-98-3	Chlordimeform	305.75		1105.25	1.588525
6166-86-5	2,4,6,8,10-Pentamethylcyclopentasiloxane	165.15	442.15	998.52	1.39122
6168-72-5	2-Amino-1-propanol, (±)-		447.65		1.45022
617-05-0	Ethyl 4-hydroxy-3-methoxybenzoate	317.15	565.15		
617-12-9	Chorismic acid	421.15			
617-31-2	2-Hydroxypentanoic acid	307.15			
617-33-4	Ethyl dibromoacetate		467.15	1899.12	1.501713
617-35-6	Ethyl 2-oxopropanoate	223.15	428.15	1059.615	1.40522
617-45-8	DL-Aspartic acid	550.65		1662.213	
617-48-1	Malic acid	405.15		1601.2	
617-50-5	Isopropyl isobutanoate		396.15	847.121	
617-51-6	Isopropyl lactate		440.15	998.02	1.408225
617-52-7	Dimethyl methylenesuccinate	311.15	481.15	1124.118	1.44572
617-54-9	Dimethyl cis-2-methyl-2-butenedioate		483.65	1115.32	1.44732
617-65-2	DL-Glutamic acid			1460.12	
617-73-2	2-Hydroxyoctanoic acid	343.15			
617-75-4	Triethylarsine		411.65	1150.2	1.4672
617-78-7	3-Ethylpentane	154.6	366.55	698.22	1.39342
617-79-8	2-Ethylbutylamine	398.15			
617-83-4	Diethylcyanamide	192.45	460.15	854.2	1.412625
617-84-5	N,N-Diethylformamide		448.15	908.019	1.432125
617-85-6	Triethylstibine	175.15	434.55	1322.415	
617-86-7	Triethylsilane	116.25	382.15	730.22	1.4472
617-88-9	2-(Chloromethyl)furan			1178.32	1.49412
617-89-0	2-Furanmethanamine		418.65	1099.52	1.49082
617-90-3	2-Furancarbonitrile		420.15	1082.22	1.47982
617-92-5	1-Ethyl-1H-pyrrole		403.15	900.92	1.48412
617-94-7	α,α-Dimethylbenzenemethanol	310.15	475.15	973.52	1.53252
6175-49-1	2-Dodecanone	294.15	520.15	819.82	1.43302
618-27-9	cis-4-Hydroxy-L-proline	512.65			
618-31-5	(Dibromomethyl)benzene	274.15		1836.528	1.61472
618-32-6	Benzoyl bromide	249.15	493.15	1570.15	1.586825
618-36-0	α-Methylbenzylamine, (±)-	305.15	466.15	939.515	1.523825
618-38-2	Benzoyl iodide	276.15		1746.18	
618-40-6	1-Methyl-1-phenylhydrazine		502.15	1040.42	1.56912
618-41-7	Benzenesulfinic acid	357.15			
618-42-8	1-Acetylpiperidine	259.75	499.65	1011.9	1.479025
618-45-1	3-Isopropylphenol	298.85	503.15		1.52612
618-46-2	3-Chlorobenzoyl chloride		498.15		1.56772
618-51-9	3-Iodobenzoic acid	459.85	602.15		
618-62-2	1,3-Dichloro-5-nitrobenzene	338.15		1400.01	
618-65-5	2-(β-D-Glucopyranosyloxy)benzaldehyde	448.15			
618-68-8	α-Benzylbenzenepropanoic acid	363.15			
618-76-8	4-Hydroxy-3,5-diiodobenzoic acid	510.15			
618-80-4	2,6-Dichloro-4-nitrophenol			1822.25	
618-83-7	5-Hydroxy-1,3-benzenedicarboxylic acid				
618-85-9	1-Methyl-3,5-dinitrobenzene	355.85	598.15	1277.2111	
618-87-1	3,5-Dinitroaniline	435.15		1601.5	
618-89-3	Methyl 3-bromobenzoate	305.15			
618-91-7	Methyl 3-iodobenzoate	327.65	550.15		
618-94-0	3-Nitrobenzoic acid, hydrazide	426.65			
618-95-1	Methyl 3-nitrobenzoate	351.15			
618-98-4	Ethyl 3-nitrobenzoate	320.15	570.15		
6189-41-9	trans-2,3-Dimethyloxirane	188.15	329.15	801.025	1.37362
619-04-5	3,4-Dimethylbenzoic acid	436.15			
619-08-9	2-Chloro-4-nitrophenol	380.65			
619-15-8	2-Methyl-1,4-dinitrobenzene	325.65		1282.111	
619-17-0	2-Amino-4-nitrobenzoic acid	542.15			
619-18-1	2,5-Dinitroaniline	411.15			
619-21-6	3-Formylbenzoic acid	448.15			
619-23-8	1-(Chloromethyl)-3-nitrobenzene	319.15			1.557762
619-24-9	3-Nitrobenzonitrile	389.75			
619-25-0	3-Nitrobenzenemethanol	303.65		1296.19	
619-31-8	N,N-Dimethyl-3-nitroaniline	333.15	555.65	1313.17	
619-39-6	2-Octyldecanoic acid	311.65		844.77	
619-41-0	2-Bromo-1-(4-methylphenyl)ethanone	324.15			
619-42-1	Methyl 4-bromobenzoate	354.15		1689.25	
619-44-3	Methyl 4-iodobenzoate	387.95		2020.01	
619-45-4	Methyl 4-aminobenzoate	384.95			
619-50-1	Methyl 4-nitrobenzoate	369.15			
619-55-6	4-Methylbenzamide	435.65			
619-58-9	4-Iodobenzoic acid	543.75	589.15	2184.2	
619-60-3	4-(Dimethylamino)phenol	350.15			
619-65-8	4-Cyanobenzoic acid	493.15			
619-66-9	4-Formylbenzoic acid	522.95			
619-67-0	4-Hydrazinobenzoic acid				
619-72-7	4-Nitrobenzonitrile	420.65			
619-73-8	4-Nitrobenzenemethanol	369.65			
619-80-7	4-Nitrobenzamide	463.15			
619-82-9	trans-1,4-Cyclohexanedicarboxylic acid	585.65			
619-84-1	4-(Dimethylamino)benzoic acid	515.65			
619-86-3	4-Ethoxybenzoic acid	472.15			
619-99-8	3-Ethylhexane		391.65	713.62	1.40182
6190-65-4	Desethyl atrazine	409.15			
61915-27-3	Oxiranemethanol, (±)-	228.15	429.15	1114.325	1.42872
6192-52-5	p-Toluenesulfonic acid monohydrate	378.45			
6195-92-2	3-Methylcyclopentanone, (±)-	214.75	417.15	913.22	1.43292
6199-67-3	Cucurbitacin B	454.15			
62-23-7	4-Nitrobenzoic acid	514.15	593.15	1610.2	
62-31-7	4-(2-Aminoethyl)-1,2-benzenediol, hydrochloride				
62-33-9	Disodium calcium EDTA				
62-38-4	Mercury(II) phenyl acetate	426.15			
62-44-2	N-(4-Ethoxyphenyl)acetamide	408.15			1.571
62-46-4	Thioctic acid	334.15	435.15		
62-50-0	Ethyl methanesulfonate				
62-51-1	Methacholine chloride	445.15			
62-53-3	Aniline	267.15	457.25	1021.72	1.58632
62-55-5	Thioacetamide	386.45			
62-56-6	Thiourea	449.15		1405.25	
62-57-7	2-Amino-2-methylpropanoic acid	608.15			
62-59-9	Cevadine				
62-67-9	Nalorphine	481.15			
62-73-7	Dichlorvos			1415.25	
62-74-8	Sodium fluoroacetate	473.15			
62-75-9	N-Nitrosodimethylamine		419.15	1004.82	1.43682
62-90-8	19-Nortestosterone phenylpropionate	367.15			
620-02-0	5-Methyl-2-furancarboxaldehyde		459.15	1107.218	1.52642
620-05-3	(Iodomethyl)benzene	299.45		1733.525	1.633425
620-08-6	4-Methoxypyridine		466.15		
620-13-3	1-(Bromomethyl)-3-methylbenzene		485.65	1371.123	1.56602
620-14-4	3-Ethyltoluene	177.45	434.45	864.52	1.49662
620-16-6	1-Chloro-3-ethylbenzene	218.15	453.15	1052.92	1.51952
620-17-7	3-Ethylphenol	273.15	491.55	1028.32	
620-19-9	1-(Chloromethyl)-3-methylbenzene		468.65	1064.2	1.53452
620-20-2	1-Chloro-3-(chloromethyl)benzene		489.15	1269.515	1.55542
620-22-4	3-Methylbenzonitrile	250.15	488.15	1031.62	1.52522
620-23-5	3-Methylbenzaldehyde		472.15	1018.921	1.541321
620-24-6	3-Hydroxybenzenemethanol	346.15		1161.25	
620-32-6	Dibenzyl sulfone	425.15			
620-40-6	Tribenzylamine	365.35	658.15	991.295	
620-42-8	Tris(p-tolyl) phosphite	325.15		1128.025	1.570328
620-45-1	2,6-Dichloroindophenol, sodium salt				
620-63-3	Glycerol tri-3-methylbutanoate		605.65	998.42	1.43542
620-71-3	N-Phenylpropanamide	378.65	495.35	1175.25	
620-73-5	Phenyl chloroacetate	317.65	505.65	1220.244	1.514644
620-80-4	Ethyl 2-benzylideneacetoacetate	333.65	569.15		
620-81-5	N,N'-Diphenylethanediamide	527.15			
620-83-7	1-Benzyl-4-methylbenzene	243.15	555.15	997.62	1.57122
620-88-2	1-Nitro-4-phenoxybenzene	334.15	593.15		
620-92-8	Bis(4-hydroxyphenyl)methane	435.65			
620-93-9	4-Methyl-N-(4-methylphenyl)aniline	352.15	603.65		
620-94-0	Bis(4-methylphenyl) sulfide	330.45			
620-99-5	N,N'-Bis(4-ethoxyphenyl)ethanimidamide monohydrochloride	464.15			
62016-38-0	2,4,7-Trimethyloctane		443.15		
6203-18-5	3-[4-(Dimethylamino)phenyl]-2-propenal	412.65			
621-03-4	2-Cyano-N-phenylacetamide	472.65			
621-07-8	N-Hydroxy-N-(phenylmethyl)benzenemethanamine	395.65			
621-08-9	Dibenzyl sulfoxide	408.15			
621-14-7	Diphenyl succinate	394.15	603.15		
621-23-8	1,3,5-Trimethoxybenzene	327.65	528.65		
621-29-4	1-Isocyanato-3-methylbenzene		469.65	1033.02	
621-32-9	1-Ethoxy-3-methylbenzene		465.15	949.2	1.5132
621-33-0	3-Ethoxyaniline		521.15		
621-34-1	3-Ethoxyphenol		524.15	1105.15	
621-36-3	3-Methylbenzeneacetic acid	335.15			
621-37-4	3-Hydroxybenzeneacetic acid	405.15			
621-42-1	N-(3-Hydroxyphenyl)acetamide	421.65			
621-59-0	3-Hydroxy-4-methoxybenzaldehyde	390.15		1196.25	
621-62-5	2-Chloro-1,1-diethoxyethane		430.15	1018.02	1.41702
621-64-7	N-Nitrosodipropylamine		479.15	916.32	1.44372
621-70-5	Glycerol trihexanoate	213.15	646.25	986.72	1.44272
621-71-6	Glycerol tridecanoate	304.15			
621-72-7	2-Benzyl-1H-benzimidazole	460.15			
621-77-2	Tripentylamine		515.65	790.72	1.43662
621-87-4	1-Phenoxy-2-propanone		502.65	1090.32	1.52282
621-95-4	1,2-Bis(4-aminophenyl)ethane	410.15			
62108-66-1	Propyl 3-chloropropanoate		453.15	1065.62	1.42902
62108-68-3	Isobutyl 3-chloropropanoate		464.45	1032.32	1.42952
62108-69-4	3-Methylbutyl 2-chloropropanoate		481.15	1005.02	1.42892
62108-70-7	3-Methylbutyl 3-chloropropanoate		481.15	1017.12	1.43432
62108-71-8	Propyl 2-chlorobutanoate		456.15	1025.22	
62127-47-3	2,2,3-Tribromobutane	274.05	482.15	2172.32	1.56022
62168-25-6	1,1-Dibromobutane		431.15	1784.25	1.498825
622-08-2	2-(Benzyloxy)ethanol	198.15	529.15	1064.02	1.52332
622-15-1	N,N'-Diphenylmethanimidamide	415.15			
622-16-2	N,N'-Diphenylcarbodiimide	442.15	604.15		
622-24-2	(2-Chloroethyl)benzene		471.15	1069.25	1.52762
622-26-4	4-Piperidineethanol	405.65	500.65	1005.915	1.49072
622-29-7	N-(Phenylmethylene)methanamine		458.15	967.114	1.55262
622-31-1	trans-Benzaldehyde oxime	308.15		1145.2	
622-32-2	cis-Benzaldehyde oxime	309.65	473.15	1111.12	1.59082
622-37-7	Azidobenzene	245.65		1086.02	1.558925
622-38-8	(Ethylthio)benzene		480.15	1021.12	1.56702
622-39-9	2-Propylpyridine	274.15	443.15	911.92	1.49252
622-40-2	4-Morpholineethanol	274.35	493.15	1071.02	1.47632
622-42-4	(Nitromethyl)benzene		509.15	1159.62	1.53232
622-44-6	Phenylimidocarbonyl chloride		483.15	1281.5	
622-45-7	Cyclohexyl acetate		447.15	968.2	1.4422
622-47-9	4-Methylbenzeneacetic acid	366.15	538.15		
622-57-1	N-Ethyl-4-methylaniline		490.15	939.116	
622-58-2	1-Isocyanato-4-methylbenzene		460.15		
622-60-6	1-Ethoxy-4-methylbenzene		468.15	950.918	1.505818
622-61-7	1-Chloro-4-ethoxybenzene	290.25	485.15	1125.42	1.52522
622-62-8	4-Ethoxyphenol	339.65	521.15		
622-63-9	1-(Ethylthio)-4-methylbenzene		493.15	999.62	1.5552
622-78-6	Benzyl isothiocyanate		516.15	1124.616	1.604915
622-79-7	(Azidomethyl)benzene			1073.019	1.534125
622-80-0	N-Propylaniline		493.15	944.32	1.54282
622-85-5	Phenyl propyl ether	245.15	463.45	947.42	1.50142
622-86-6	(2-Chloroethoxy)benzene	301.15	491.65		
622-93-5	3-(Diethylamino)-1-propanol		462.65	860.02	1.44392
622-96-8	4-Ethyltoluene	210.45	435.15	861.42	1.49592
622-97-9	4-Methylstyrene	235.35	445.15	917.325	1.542
622-98-0	1-Chloro-4-ethylbenzene	210.65	457.55	1045.52	1.51752
6222-35-1	Cyclohexyl propanoate		467.15	935.92	1.44032
6223-78-5	2,5-Dichloro-2,5-dimethylhexane	336.15		954.32	
6224-63-1	Tris(3-methylphenyl)phosphine	374.15			
6225-06-5	N,N-Dimethylpentanamide	222.15		896.225	1.441925
623-00-7	4-Bromobenzonitrile	387.15	509.15		
623-03-0	4-Chlorobenzonitrile	364.75	496.15	1113.317	
623-05-2	4-Hydroxybenzenemethanol	397.65	525.15		
623-08-5	N,4-Dimethylaniline		488.15	934.855	1.55682
623-10-9	N-Hydroxy-4-methylaniline	369.15			
623-12-1	4-Chloroanisole	255.15	470.65	1201.2	1.53902
623-15-4	4-(2-Furanyl)-3-buten-2-one	312.65		1049.657	1.578845
623-17-6	2-Furanmethanol acetate		455.15	1117.52	1.43272
623-19-8	Furfuryl propanoate		468.15	1108.52	
623-22-3	Propyl 3-(2-furyl)acrylate			1074.42	1.539224
623-24-5	1,4-Bis(bromomethyl)benzene	417.65	518.15	2012.25	
623-25-6	1,4-Bis(chloromethyl)benzene	373.15	530.15	1417.25	
623-26-7	p-Dicyanobenzene	497.15			
623-27-8	1,4-Benzenedicarboxaldehyde	390.15	519.15		
623-30-3	3-(2-Furanyl)-2-propenal	325.15			
623-33-6	Glycine, ethyl ester, hydrochloride	417.15			
623-36-9	2-Methyl-2-pentenal		409.15	858.12	1.44882
623-39-2	3-Methoxy-1,2-propanediol		493.15	1114.2	1.44225
623-40-5	2-Pentanone oxime		442.15	909.52	1.44502
623-42-7	Methyl butanoate	187.35	375.05	898.42	1.38782
623-43-8	Methyl trans-2-butenoate	231.15	392.15	944.42	1.42422
623-46-1	1,2-Dichloro-1-ethoxyethane		417.15	1137.02	1.44352
623-47-2	Ethyl 2-propynoate		392.15	964.516	1.41052
623-48-3	Ethyl iodoacetate		452.15	1817.313	1.507913
623-49-4	Ethyl cyanoformate		388.65	1003.25	1.38202
623-50-7	Ethyl hydroxyacetate		429.15	1082.623	1.41802
623-51-8	Ethyl mercaptoacetate		430.15	1096.415	1.45822
623-53-0	Ethyl methyl carbonate	259.15	380.65	1012.2	1.37782
623-59-6	N-[(Methylamino)carbonyl]acetamide	453.65	584.15		
623-65-4	Hexadecanoic anhydride	337.15		838.883	1.436468
623-66-5	Octanoic anhydride	272.15	555.65	906.518	1.435818
623-68-7	2-Butenoic anhydride		520.15	1039.72	1.47452
623-70-1	Ethyl trans-2-butenoate		413.15	917.52	1.42432
623-71-2	Ethyl 3-chloropropanoate		435.15	1108.62	1.42542
623-73-4	Ethyl diazoacetate	251.15		1085.218	1.46052
623-76-7	N,N'-Diethylurea	383.45	536.15	1041.525	1.46164
623-78-9	Ethyl ethylcarbamate		449.15	981.32	1.42152
623-81-4	Diethyl sulfite		431.15	1120	1.43102
623-84-7	1,2-Propanediol diacetate		460.15	1059.2	1.41732
623-87-0	Glycerol 1,3-dinitrate	299.15		1523.2	1.47152
623-91-6	Diethyl fumarate	273.95	487.15	1045.22	1.44122
623-93-8	5-Nonanol	278.75	468.15	822.02	1.42892
623-96-1	Dipropyl carbonate		439.15	943.52	1.40082
623-97-2	Bis(2-chloroethyl) carbonate	281.15	514.15	1350.62	1.4612
6232-88-8	4-(Bromomethyl)benzoic acid	499.45			
6236-88-0	trans-1-Ethyl-4-methylcyclohexane	192.35	420.15	779.82	1.43042
624-03-3	1,2-Ethanediol, dihexadecanoate	342.25		859.478	
624-04-4	1,2-Ethanediol, didodecanoate	329.75			
624-13-5	Propyl octanoate	227.15	495.15	865.92	1.419125
624-16-8	4-Decanone	264.15	479.65	824.2	1.424021
624-17-9	Diethyl nonanedioate	254.65	562.15	972.92	1.43512
624-18-0	1,4-Benzenediamine, dihydrochloride				
624-20-4	1,2-Dibromohexane			1577.42	1.50242
624-24-8	Methyl pentanoate		400.51	894.72	1.40032
624-29-3	cis-1,4-Dimethylcyclohexane	185.75	397.45	782.92	1.42302
624-31-7	4-Iodotoluene	306.75	487.15	1678.2	
624-38-4	p-Diiodobenzene	402.4	558.15		
624-41-9	2-Methyl-1-butanol acetate		412.15	874.02	1.40402
624-42-0	6-Methyl-3-heptanone		440.15	830.42	1.42092
624-44-2	5-Methyl-2-hexanone oxime		468.65	888.12	1.44482
624-45-3	Methyl 4-oxopentanoate		469.15	1051.12	1.42332
624-48-6	Dimethyl maleate	254.15	475.15	1160.62	1.44162
624-49-7	Dimethyl fumarate	374.85	466.15	1372	1.4062111
624-54-4	Pentyl propanoate	200.05	439.15	876.125	1.409615
624-60-2	Ethylmethylamine hydrochloride	401.15		1087.42	
624-64-6	trans-2-Butene	167.63	274.03		
624-65-7	3-Chloro-1-propyne	195.15	329.15	1030.25	1.43492
624-67-9	2-Propynal		333.15	915.22	1.403325
624-72-6	1,2-Difluoroethane		299.15		
624-73-7	1,2-Diiodoethane	356.15	473.15	3325.2	1.8712
624-74-8	Diiodoacetylene	354.65	520.15		