CASRN	Name	Tm	Tb	rho	RI
384-04-3	1,1,2,4,4-Pentafluoro-3-(trifluoromethyl)-1,3-butadiene		312.15	1527	1.3
384-22-5	1-Nitro-2-(trifluoromethyl)benzene	305.65	490.15		
3840-31-1	3,4,5-Trimethoxybenzenemethanol	276.15		1142.72	1.54392
38411-22-2	2,2',3,3',6,6'-Hexachlorobiphenyl	385.15			
38433-80-6	3-Hydroxy-2-methylpropanal				
38460-95-6	10-Undecenoyl chloride			944.2	1.4542
3848-24-6	2,3-Hexanedione		401.15	934.19	
3849-33-0	1,1,1,2,3,3,3-Heptachloropropane	284.15	522.15	1792.134	1.542721
3850-30-4	3,3-Dimethyl-2-butanamine	253.15	374.15	766.82	1.410525
3852-09-3	Methyl 3-methoxypropanoate		414.15	1013.915	1.40302
38552-72-6	3-Methyl-5-hepten-2-one			846.318	1.434518
3856-25-5	Copaene		521.65	899.62	1.48942
3857-25-8	5-Methyl-2-furanmethanol			1076.92	1.48532
38577-97-8	4,4'-Diiodofluorescein				
3858-78-4	Butylamine hydrochloride	486.15		982.2	
3862-11-1	3,4-Dimethylphenol phosphate (3:1)	345.15			
3862-12-2	Tris(2,4-dimethylphenyl) phosphate		506.65	1142.38	1.55502
38641-94-0	Glyphosate isopropylamine salt				
38651-65-9	6,6-Dimethylbicyclo[3.1.1]heptan-2-one, (1R)-	272.15	482.15	980.72	1.47872
38727-55-8	Diethatyl, ethyl ester	319.15			
3874-54-2	4-Chloro-1-(4-fluorophenyl)-1-butanone			1222.5	1.52552
3875-51-2	Isopropylcyclopentane	161.65	399.55	776.52	1.42582
3877-15-4	Methyl propyl sulfide	160.19	368.65	842.42	1.44422
3878-55-5	Methyl hydrogen succinate	331.15			
38821-53-3	Cephradine				
38842-05-6	1,2,3,5-Tetraethylbenzene		523.15		
38870-89-2	Methoxyacetyl chloride		385.15	1187.12	1.41992
389-08-2	Nalidixic acid	502.65			
389-40-2	Pentafluoroanisole	243.15	411.65	1493.2	1.40872
3891-07-4	N-(2-Hydroxyethyl)phthalimide	403.45			
3899-36-3	trans-3-Methyl-3-hexene		367.15	705.025	1.41092
39029-41-9	γ-Cadinene			918.215	1.31662
3910-35-8	2,3-Dihydro-1,1,3-trimethyl-3-phenyl-1H-indene	325.15	581.65	1000.92	1.56812
3913-02-8	2-Butyl-1-octanol		521.15	891.2	
3913-81-3	trans-2-Decenal		503.15		
39148-24-8	Fosetyl-Al	573.15			
3917-15-5	Allyl vinyl ether		339.15	790.02	1.40622
39191-07-6	3-Chloro-N-methylbenzenemethanamine				1.535025
39196-18-4	Thiofanox	331.15			
392-12-1	α-Oxo-1H-indole-3-propanoic acid	484.15			
392-56-3	Hexafluorobenzene	278.25	353.35	1617.52	1.37772
392-83-6	1-Bromo-2-(trifluoromethyl)benzene		440.65	1652.25	1.48172
392-85-8	1-Fluoro-2-(trifluoromethyl)benzene		387.65	1293.25	1.404025
39201-33-7	4-Cyanobutanoic acid	318.15			
39227-61-7	1,2,3,4,7-Pentachlorodibenzo-p-dioxin	468.15			
393-52-2	2-Fluorobenzoyl chloride	275.15		1328.25	1.53652
393-75-9	2-Chloro-1,3-dinitro-5-(trifluoromethyl)benzene	330.15			
3934-20-1	2,4-Dichloropyrimidine	332.15	471.15		
3937-56-2	1,9-Nonanediol	319.55			
3938-95-2	Ethyl 2,2-dimethylpropanoate	183.65	391.45	856.2	1.39062
394-47-8	2-Fluorobenzonitrile				
3943-74-6	Methyl 4-hydroxy-3-methoxybenzoate	337.15	559.15		
3944-36-3	1-(1-Methylethoxy)-2-propanol		410.65	879.2	1.40702
3944-87-4	1,2-Bis(2-chloroethylsulfonyl)ethane	478.15			
395-28-8	Isoxsuprine	376.15			
39515-51-0	3-Phenoxybenzaldehyde	287.15		1147.25	1.59542
3953-10-4	2-Ethylbutyl acrylate				
39546-32-2	4-Piperidinecarboxamide	411.65			
3955-26-8	1,2,4-Trichloro-5-(chloromethyl)benzene		546.15	1547.2	
3958-57-4	1-(Bromomethyl)-3-nitrobenzene	332.45			
39589-98-5	Dimethyl carbate	311.15		1164.21	1.48522
396-01-0	6-Phenyl-2,4,7-pteridinetriamine	589.15			
3964-58-7	3-Chloro-4-hydroxybenzoic acid	444.15			
3967-54-2	4-Chloro-1,3-dioxolan-2-one	383.15	486.15	1504	1.45402
3970-62-5	2,2-Dimethyl-3-pentanol	282.45	409.15	825.32	1.42232
3972-56-3	1-Chloro-4-tert-butylbenzene		487.15	1007.518	1.51232
3972-65-4	1-Bromo-4-tert-butylbenzene	292.15	504.15	1228.62	1.54362
3974-99-0	Isopropyl trichloroacetate		447.15	1291.125	1.44282
3978-81-2	4-tert-Butylpyridine	233.45	470.15	915.25	1.49582
398-23-2	4,4'-Difluoro-1,1'-biphenyl	363.15	527.65		
3982-67-0	2-Ethyl-1,3,5-trimethylbenzene	257.65	484.15	883.2	1.50742
3988-03-2	4,4'-Dibromobenzophenone	450.15	667.15		
40058-87-5	Isopropyl 2-chloropropanoate		424.65	1031.52	1.41492
4008-48-4	5-Nitro-8-quinolinol	453.15			
401-56-9	Ethyl chlorofluoroacetate		402.15	1225.2	1.39272
401-78-5	1-Bromo-3-(trifluoromethyl)benzene	274.15	424.65	1613.25	1.47162
401-80-9	1-Fluoro-3-(trifluoromethyl)benzene	191.65	373.75	1302.117	
4016-11-9	(Ethoxymethyl)oxirane		399.15	970.02	1.43202
4016-14-2	Isopropyl glycidyl ether		411.15	918.62	
4018-65-9	3-Chloro-1,2-benzenediol	321.65			
402-31-3	1,3-Bis(trifluoromethyl)benzene		389.15	1379.025	1.391625
402-43-7	1-Bromo-4-(trifluoromethyl)benzene		433.15	1607.25	1.470525
402-44-8	1-Fluoro-4-(trifluoromethyl)benzene	231.45	376.65	1293.25	1.40252
402-67-5	1-Fluoro-3-nitrobenzene	314.15	470.15	1325.419	1.526215
4023-34-1	Cyclopropanecarbonyl chloride		392.15	1151.62	
4023-65-8	trans-1-Propene-1,2,3-tricarboxylic acid	455.75			
4028-23-3	Allylchlorodimethylsilane		384.15	896.42	1.41952
403-42-9	1-(4-Fluorophenyl)ethanone	228.15	469.15	1138.225	1.508125
403-43-0	4-Fluorobenzoyl chloride	282.15		1342.25	1.52962
4032-86-4	3,3-Dimethylheptane		410.15	725.42	1.40872
4032-94-4	2,4-Dimethyloctane		427.15	722.625	1.40912
4033-27-6	7,8-Dihydrofolic acid				
4038-04-4	3-Ethyl-1-pentene	145.64	357.15	691.725	1.39822
404-72-8	1-Fluoro-3-isothiocyanatobenzene		500.15	1272.5	1.61862
404-86-4	Capsaicin	338.15			
4043-71-4	trans-5-(1-Propenyl)-1,3-benzodioxole	279.95	526.15	1122.42	1.57822
4044-65-9	1,4-Diisothiocyanatobenzene	405.15			
4048-33-3	6-Amino-1-hexanol	330.15			
40487-42-1	Pendimethalin	327.85		1192.5	
4049-81-4	2-Methyl-1,5-hexadiene	144.25	361.15	715.325	1.41832
405-50-5	4-Fluorobenzeneacetic acid	367.15			
405-99-2	1-Vinyl-4-fluorobenzene	238.65		1022.02	1.51502
4050-45-7	trans-2-Hexene	140.05	341	673.325	1.39362
4054-38-0	1,3-Cycloheptadiene	162.75	393.65	868.25	1.49782
4055-39-4	Mitomycin A				
4055-40-7	Mitomycin B				
40596-69-8	Methoprene			926.2	
4062-60-6	N,N'-Di-tert-butylethylenediamine	326.45	462.15	690	
4065-80-9	2-Methylenecyclohexanol			955.2	1.48432
4067-16-7	3,6,9,12-Tetraazatetradecane-1,14-diamine			950	1.50962
4068-78-4	Methyl 5-chloro-2-hydroxybenzoate	323.15			
407-25-0	Trifluoroacetic acid anhydride	208.15	312.65	1490.25	1.26925
407-41-0	O-Phosphoserine				
4074-43-5	3-Butylphenol		522.15	974.2	
4074-88-8	Di-2-propenoyldiethyleneglycol		473.15	1111.025	1.459525
4075-79-0	N-[1,1'-Biphenyl]-4-ylacetamide	445.95			
4079-52-1	2-Methoxy-1-phenylethanone	281.15	514.15	1089.72	1.53932
4079-68-9	3-(Diethylamino)-1-propyne		393.15		
4088-60-2	cis-2-Buten-1-ol		396.15	866.22	1.434225
4091-39-8	3-Chloro-2-butanone		402.15	1055.425	1.42192
4095-06-1	Methylenecyclopropene				
4096-20-2	1-Phenylpiperidine	277.85	533.15	994.425	1.559825
4096-21-3	1-Phenylpyrrolidine	284.15		1018.2	1.58132
4098-40-2	Mitragynine	377.15			
4098-71-9	Isophorone diisocyanate	333.15		1062.2	
4100-80-5	3-Methylsuccinic anhydride	309.95	494.15	1222.5	
4101-68-2	1,10-Dibromodecane	301.15		1335.3	1.492725
41011-01-2	2-Bromo-3'-chloroacetophenone	313.15	670.65		
41096-46-2	Hydroprene			895.52	
4110-50-3	Ethyl propyl sulfide	156.12	391.65	837.02	1.44622
4114-28-7	Diethyl 1,2-hydrazinedicarboxylate	408.15		1324.8	
4114-31-2	Ethyl hydrazinecarboxylate	318.95			
4117-15-1	1,10-Undecadiyne	256.15		818.221	1.45321
41198-08-7	Profenofos			1455.2	
4124-30-5	Dichloroacetic anhydride	291.15		1574.24	
4124-31-6	Trichloroacetic anhydride			1690.82	
4124-88-3	3-Nonenoic acid	268.75		925.42	1.445425
4127-45-1	1,1,2-Trimethylcyclopropane	134.95	326.15	689.725	1.38642
4127-47-3	1,1,2,2-Tetramethylcyclopropane	192.46	349.15		
4128-31-8	2-Octanol	241.55	452.15	819.32	1.42032
4130-08-9	Vinyltriacetoxysilane			1169.2	1.42262
4130-42-1	2,6-Di-tert-butyl-4-ethylphenol	317.15	545.15		
4131-74-2	Dimethyl thiodipropionate			1155.92	1.47402
4143-41-3	trans-Dimethyldiazene	195.15	274.65	743	1.419919
41464-40-8	2,2',4',5-Tetrachlorobiphenyl	339.05			
4147-51-7	Dipropetryn	378.15			
4152-09-4	N-(Phenylmethyl)-1,2-ethanediamine				
4152-90-3	3-Chlorobenzenemethanamine				1.557025
4156-16-5	2-Ethyl-5-(3-sulfophenyl)isoxazolium hydroxide, inner salt	480.15			
4160-72-9	1-Methylthymine	568.15			
4160-82-1	3,3-Dimethylpentanedioic acid anhydride	398.95			
4164-28-7	N-Methyl-N-nitromethanamine	329.15	460.15	1109.072	1.446272
4169-04-4	2-Phenoxy-1-propanol		517.15	980.125	1.476025
4170-24-5	2-Chlorobutanoic acid			1179.62	1.4412
4179-19-5	1,3-Dimethoxy-5-methylbenzene		517.15	1047.815	1.52342
4180-23-8	trans-1-Methoxy-4-(1-propenyl)benzene	295.65	509.15	988.22	1.56152
4181-95-7	Tetracontane	354.55	795.15	817.125	1.457225
41814-78-2	Tricyclazole	460.45			
4187-87-5	α-Ethynylbenzenemethanol	295.15		1065.52	1.55082
4192-77-2	Ethyl trans-cinnamate	279.65	543.15	1049.12	1.55982
4199-88-6	5-Nitro-1,10-phenanthroline	475.45			
420-04-2	Cyanamide	318.7		1282.2	1.441848
420-05-3	Cyanic acid	187.15	296.15	1140.2	
420-12-2	Thiirane	164.15	328.05	1013.02	1.49352
420-24-6	Methyldifluoroarsine	243.45	349.65	1924.18	
420-26-8	2-Fluoropropane		263.15		
420-37-1	Trimethyloxonium fluoborate				
420-45-1	2,2-Difluoropropane	168.35	273.15		1.29042
420-46-2	1,1,1-Trifluoroethane	161.35	225.95		
420-56-4	Fluorotrimethylsilane		289.55		
4200-95-7	1-Heptadecanamine	322.15	609.15	851.02	1.45102
42027-23-6	2,3-Pentanediol		460.65	979.819	1.441225
4205-23-6	D-Gulose				
4205-90-7	Clonidine	410.15			
4206-75-1	Chlorophenylsilane		435.65	1068.32	1.53402
4208-49-5	Allyl 2-furancarboxylate		480.65	1115.25	1.49452
4208-64-4	α-Methyl-2-furanmethanol		435.65	1073.925	1.482715
421-04-5	1-Chloro-1,1,2-trifluoroethane		289.15		
421-06-7	2-Bromo-1,1,1-trifluoroethane	179.25	299.15	1788.12	1.33312
421-07-8	1,1,1-Trifluoropropane		260.15		
421-14-7	Methyl trifluoromethyl ether	124.05	247.95		
421-17-0	Trifluoromethanesulfenyl chloride		272.45		
421-20-5	Methyl fluorosulfonate	178.15	366.15	1412	1.33262
421-50-1	1,1,1-Trifluoroacetone		295.15	1252.25	
421-83-0	Trifluoromethanesulfonyl chloride		435.15		1.33442
4212-43-5	Peroxypropanoic acid				1.414815
4214-28-2	1-Iodo-2,4-dimethylbenzene		504.15	1628.216	1.600816
4214-72-6	Isaxonine	301.15			
4214-76-0	5-Nitro-2-pyridinamine	461.15			
4219-24-3	3-Hexenoic acid	285.15	481.15	964.023	1.49352
422-05-9	2,2,3,3,3-Pentafluoro-1-propanol				
422-56-0	3,3-Dichloro-1,1,1,2,2-pentafluoropropane		323.15	1542.5	
42200-33-9	Nadolol	403.15			
42205-08-3	1,2,3-Triethylbenzene	247.15	445.15		
4221-98-1	5-Isopropyl-2-methyl-1,3-cyclohexadiene, (R)-		446.15	842.12	1.477219
4224-70-8	6-Bromohexanoic acid	308.15			
4228-00-6	Phenyl laurate	297.65		935.43	
4229-44-1	N-Hydroxymethylamine hydrochloride	356.65			
4232-27-3	2,4-Dinitrophenol, acetate	345.65			
42389-30-0	5-Chloro-3-nitro-1,2-benzenediamine	440.15			
42397-64-8	1,6-Dinitropyrene	582.15			
42397-65-9	1,8-Dinitropyrene	572.15			
4246-51-9	4,7,10-Trioxatridecane-1,13-diamine			1005	1.46402
42474-21-5	1,2-Dibromoheptane		501.15	1508.62	1.49862
425-75-2	Ethyl trifluoromethanesulfonate		388.15	1374	
425-82-1	Perfluorooxetane	156.15	244.55		
4253-34-3	Methyltriacetoxysilane	313.65		1175.02	1.40832
4253-89-8	Diisopropyl disulfide	204.15	450.15	943.52	1.49162
4253-91-2	Dipropyl sulfoxide	298.15		965.42	1.46632
4254-02-8	Cyclopentanecarbonitrile	197.15	442.15	912	1.44102
4255-62-3	4,4-Dimethylcyclohexanone	312.15		932.2	1.453724
42569-16-4	3-Penten-2-ol, (±)-		396.15	832.825	1.42802
42576-02-3	Bifenox	359.25			
4259-00-1	1,1,2-Trimethylcyclopentane	251.45	386.85	766.02	1.41992
4265-25-2	2-Methylbenzofuran		467.15	1054.02	1.549522
4268-36-4	Tybamate	323.15			
4271-30-1	N-(4-Aminobenzoyl)-L-glutamic acid	446.15			
4279-22-5	2,2-Dichlorobutane	199.15	375.15	1104.825	1.4295
4279-76-9	Phenoxyacetylene	237.15		1061.42	1.51252
428-59-1	Trifluoro(trifluoromethyl)oxirane		245.75		
4282-31-9	2,5-Thiophenedicarboxylic acid	632.15	682.15		
4282-40-0	1-Iodoheptane	224.95	474.15	1371.925	1.49042
4282-42-2	1-Iodononane	253.15	518.15	1283.625	1.484825
4283-80-1	2-Bromo-2-methylpentane		415.65		1.44223
4285-42-1	Methylphenylcarbamic chloride	361.65	553.15		
42852-95-9	2-(Methylamino)-2-deoxy-α-L-glucopyranose				
4286-49-1	1,4-Dinitrobutane	306.65			
42874-03-3	Oxyfluorfen	359.75		1357.3	
4288-84-0	1-Chloro-3-(1-methylethoxy)-2-propanol		455.15	1091.02	1.437025
429-41-4	Tetrabutylammonium fluoride	310.15			
4292-19-7	1-Iodododecane	273.45	558.15	1199.92	1.48402
4292-75-5	Hexylcyclohexane	225.65	498.15	807.62	1.44622
4292-92-6	Pentylcyclohexane	215.65	477.15	803.72	1.44372
42978-66-5	Tripropylene glycol diacrylate				
430-40-0	Ethyldifluoroarsine	234.45	367.45	1708.17	
430-51-3	1-Fluoro-2-propanone		350.15	1028.82	1.37002
430-57-9	1,2-Dichloro-1-fluoroethane	213.15	347.15	1381.42	1.41322
430-66-0	1,1,2-Trifluoroethane	189.15	276.65		
430-71-7	Propanoyl fluoride		317.15	972.15	1.32913
430-95-5	1,1-Dichloro-2-fluoropropene		351.15	1302.625	1.419625
431-03-8	2,3-Butanedione	271.95	360.65	980.818	1.39512
431-06-1	1,2-Dichloro-1,2-difluoroethane	171.95	332.75	1416.32	1.36192
431-07-2	1-Chloro-1,2,2-trifluoroethane		290.45		
431-47-0	Methyl trifluoroacetate		316.15	1282	
431-63-0	1,1,1,2,3,3-Hexafluoropropane		279.35	1502.6	
431-89-0	1,1,1,2,3,3,3-Heptafluoropropane	146.35	256.81		
43121-43-3	Bayleton	350.15		1222	
4313-03-5	trans,trans-2,4-Heptadienal		357.65	881.25	1.53152
4318-37-0	Hexahydro-1-methyl-1H-1,4-diazepine		427.15	911.12	1.47692
4318-76-7	2,5-Pyridinediamine	383.45			
4319-49-7	4-Morpholinamine		439.15	1059.25	1.47722
432-25-7	2,6,6-Trimethyl-1-cyclohexene-1-carboxaldehyde			959.15	1.497115
43222-48-6	Difenzoquat methyl sulfate	431.65			
4325-82-0	4-Methyl-3-penten-2-ol		407.15	840.15	1.937715
433-19-2	1,4-Bis(trifluoromethyl)benzene		388.15		
434-03-7	Ethisterone	545.15			
434-07-1	Oxymetholone	452.15			
434-13-9	3-Hydroxycholan-24-oic acid, (3α,5β)	461.15			
434-16-2	Cholesta-5,7-dien-3-ol, (3β)	423.65			
434-22-0	Nandrolone	385.15			
434-45-7	2,2,2-Trifluoro-1-phenylethanone	233.15	426.15	1279.2	1.45832
434-64-0	Perfluorotoluene	207.67	377.75	1661.625	1.36702
434-90-2	2,2',3,3',4,4',5,5',6,6'-Decafluoro-1,1'-biphenyl	340.45	480.15	1785.2	
4341-76-8	Ethyl 2-butynoate		436.15	964.12	1.43722
4342-03-4	Dacarbazine	478.15			
4342-61-4	1,2-Dichloro-1,1,2,2-tetramethyldisilane		421.15	1010.2	1.45482
4344-55-2	4-Butoxyaniline				
4346-18-3	Phenyl butanoate		501.15	1038.215	
435-97-2	Phenprocoumon	456.15			
4351-54-6	Cyclohexyl formate		435.15	1005.7	1.44302
4358-59-2	Methyl cis-2-butenoate		391.15		1.41752
4358-87-6	Methyl α-hydroxyphenylacetate, (±)-	331.15		1175.62	
436-05-5	Curine	494.15			
4360-12-7	Ajmalan-17,21-diol, (17R,21α)	479.15			
4363-93-3	4-Quinolinecarboxaldehyde	324.15			
437-38-7	Fentanyl	358.35			
437-50-3	1,7-Dihydroxy-3-methoxy-9H-xanthen-9-one	539.65			
438-08-4	Androstane-17-carboxylic acid, (5β,17β)	501.65			
439-14-5	Valium	405.15			
4390-04-9	2,2,4,4,6,8,8-Heptamethylnonane		519.15		
4392-24-9	(3-Bromo-1-propenyl)benzene	307.15		1342.83	1.6132
4393-06-0	α-Vinylbenzenemethanol			1024.921	1.54062
4394-85-8	4-Morpholinecarboxaldehyde	294.15	511.15	1152.02	1.48452
4397-53-9	4-(Phenylmethoxy)benzaldehyde	346.15			
440-17-5	Trifluoperazine dihydrochloride	514.65			
4403-69-4	2-Aminobenzenemethanamine	334.15	542.15		
4407-36-7	trans-3-Phenyl-2-propen-1-ol	307.95	532.15	1044.02	1.58192
4408-64-4	N-Methyliminodiacetic acid	499.15			
4414-88-4	1H-Benzimidazole-2-acetonitrile	481.55			
4418-61-5	1H-Tetrazol-5-amine	471.95			
442-16-0	7-Ethoxy-3,9-acridinediamine	499.15			
442-51-3	Harmine	546.15			
4420-74-0	3-(Trimethoxysilyl)-1-propanethiol			1015.25	1.442025
4422-95-1	1,3,5-Benzenetricarbonyl trichloride	309.45			
4426-11-3	Cyclobutanecarbonitrile		421.15		
4427-56-9	2-Isopropyl-4-methylphenol	309.15	504.15	991.02	1.52752
4428-13-1	α,α-Diphenylbenzeneethanol	362.65			
443-48-1	Metronidazole	433.65			
443-79-8	DL-Isoleucine				
443-83-4	1-Chloro-3-fluoro-2-methylbenzene		427.15	1191.25	1.50262
4430-20-0	Chlorophenol Red	534.15			
4433-79-8	N-(4-Chloro-2,5-dimethoxyphenyl)-3-oxobutanamide	380.15			
4435-18-1	Cyclohexylideneacetonitrile			948.315	1.438225
4437-20-1	Difurfuryl disulfide	283.15			
4437-22-3	Difurfuryl ether			1140.52	1.50882
4437-51-8	3,4-Hexanedione	263.15	403.15	941.21	1.413021
4439-20-7	N,N'-Bis(2-hydroxyethyl)ethylenediamine	373.25			
4439-24-1	2-(2-Methylpropoxy)ethanol		428.15	890.02	1.41432
444-27-9	4-Thiazolidinecarboxylic acid	469.65			
444-30-4	2-(Trifluoromethyl)phenol	318.65	420.65		
4442-79-9	Cyclohexaneethanol		481.15	922.92	1.46412
4445-06-1	Octadecylcyclohexane	314.65	682.15	830.02	1.46102
4445-07-2	Octadecylbenzene	308.15	673.15	853.6	1.47936
4447-60-3	Triisopropoxymethane		440.15	862.12	1.40002
4449-51-8	Cyclopamine	510.15			
445-29-4	2-Fluorobenzoic acid	397.35		1460.25	
4454-05-1	3,4-Dihydro-2-methoxy-2H-pyran		400.15	1006	1.44202
4455-26-9	Methyldioctylamine	243.05			1.44242
4457-00-5	Hexylcyclopentane	200.15	479.15	796.52	1.43922
4457-32-3	Carbonochloridic acid, (4-nitrophenyl)methyl ester	305.95			
446-34-4	2-Fluoro-4-methyl-1-nitrobenzene	326.35		1438.025	
446-35-5	2,4-Difluoro-1-nitrobenzene	282.95	480.15	1457.114	1.514914
446-52-6	2-Fluorobenzaldehyde	228.65	448.15	1178.25	1.52342
446-72-0	Genistein				
446-86-6	Azathioprine				
4460-86-0	2,4,5-Trimethoxybenzaldehyde	387.15			
4468-02-4	Zinc gluconate				
447-31-4	2-Chloro-1,2-diphenylethanone	341.65			
447-41-6	Nylidrin	384.15			
447-53-0	1,2-Dihydronaphthalene	264.38	483.35	997.42	1.58142
448-71-5	Etioporphyrin	635.15			
4480-83-5	1,4-Dioxane-2,6-dione	365.65	513.65		
4481-08-7	6-Deoxy-3-O-methylgalactose	392.15			
4481-55-4	Pentryl	402.15		1820	
4482-75-1	α-Maltose	435.65		1546.2	
4484-72-4	Trichlorododecylsilane				1.45812
4485-09-0	4-Nonanone		461.15	819.025	1.41892
44855-57-4	2-Octanamine, (±)-	370.15	436.15	774.42	1.423225
4491-19-4	Indaconitine				
44914-03-6	2-Methylbutyl acrylate		431.15	893.62	1.42402
4493-42-9	Methyl trans-2,cis-4-decadienoate			912.822	1.487422
4498-32-2	Dibenzepin	390.15			
450-95-3	2-Fluoro-1-phenylethanone	302.15		1152.2	1.52002
451-13-8	2,5-Dihydroxybenzeneacetic acid	426.15			
451-40-1	2-Phenylacetophenone	329.15	593.15	1201	
451-46-7	Ethyl 4-fluorobenzoate	299.15	483.15	1146.25	1.48642
4510-34-3	cis-3-Phenyl-2-propen-1-ol	307.15	530.65	1044.02	1.58192
4511-42-6	cis-3,6-Dimethyl-1,4-dioxane-2,5-dione	369.95			
4516-69-2	1,1,3-Trimethylcyclopentane	130.65	378.05	743.925	1.41122
4518-10-9	Methyl 3-aminobenzoate	312.15		1232.2	
4518-98-3	1,1,2,2-Tetrachloro-1,2-dimethyldisilane		427.15		
452-35-7	6-Ethoxy-2-benzothiazolesulfonamide	464.15			
452-58-4	2,3-Pyridinediamine	393.95			
452-71-1	4-Fluoro-2-methylaniline	287.35		1126.318	1.536318
452-86-8	4-Methyl-1,2-benzenediol	338.15	531.15	1128.774	1.542574
4521-61-3	3,4,5-Trimethoxybenzoyl chloride	355.15			
4525-44-4	Dichloroethylmethylsilane		374.15	1004.72	1.41972
453-13-4	1,3-Difluoro-2-propanol		400.15	1242.5	1.37252
453-20-3	Tetrahydro-3-furanol		454.15	1092.5	1.45002
4536-23-6	2-Methylhexanoic acid		487.15	918.2	1.41932
4536-30-5	2-(Dodecyloxy)ethanol				
454-14-8	Cuscohygrine			973.32	1.48322
454-29-5	DL-Homocysteine				
454-31-9	Ethyl difluoroacetate		373.15	1176.52	
4542-61-4	Dimethoxyborane	142.55	299.05		
4549-31-9	1,7-Dibromoheptane	314.85	520.15	1530.62	1.50342
4549-32-0	1,8-Dibromooctane	288.65	544.15	1459.425	1.497125
4549-33-1	1,9-Dibromononane	250.65	542.15	1422.92	
4549-40-0	N-Nitroso-N-methylvinylamine		320.15		
4549-74-0	3-Methyl-1,3-pentadiene		350.15	730.25	1.4522
455-14-1	4-(Trifluoromethyl)aniline	311.15		1283.27	1.481525
455-18-5	4-(Trifluoromethyl)benzonitrile	310.65			
455-19-6	4-(Trifluoromethyl)benzaldehyde				1.46302
455-32-3	Benzoyl fluoride	245.15	427.65	1140.02	
455-38-9	3-Fluorobenzoic acid	396.75		1474.25	
4553-07-5	Ethyl 2-cyano-2-phenylacetate			1091.2	1.501225
4553-62-2	2-Methylpentanedinitrile	228.15	543.15	950	1.43402
456-22-4	4-Fluorobenzoic acid	457.05		1479.25	
456-41-7	1-(Bromomethyl)-3-fluorobenzene				1.54742
456-48-4	3-Fluorobenzaldehyde		446.15	1172.5	1.52062
456-49-5	1-Fluoro-3-methoxybenzene	238.15	432.15	1104.25	1.48762
456-59-7	Cyclandelate	325.15			
457-87-4	N-Ethyl-α-methylbenzeneethanamine				1.498625
458-24-2	Fenfluramine				