CASRN	Name	Tm	Tb	rho	RI
20624-25-3	Sodium diethyldithiocarbamate trihydrate	368.15			
2065-23-8	Methyl phenoxyacetate		518.15	1149.32	1.51552
2065-70-5	2,6-Dichloronaphthalene	413.65	558.15		
2067-33-6	5-Bromopentanoic acid	313.15			
2068-83-9	3-Hydroxy-2-methylpropanoic acid				
207-08-9	Benzo[k]fluoranthene	490.15	753.15		
20739-58-6	2-Octyn-1-ol	255.15		880.52	1.45562
20769-85-1	2-Bromo-2-methylpropanoyl bromide		436.15	1406.714	
2077-13-6	1-Chloro-2-isopropylbenzene	198.75	464.15	1034.12	1.51682
2078-54-8	Propofol	291.15	520.15	955.2	1.51402
2079-95-0	1-Tetradecanethiol	280.15	572.15	864.12	1.45972
208-96-8	Acenaphthylene	362.55	553.15	898.716	
2082-59-9	Pentanoic anhydride	217.05	517.15	924.2	1.417126
2082-79-3	Octadecyl 3-(3,5-di-tert-butyl-4-hydroxyphenyl)propanoate	323.15			
2082-81-7	1,4-Butanediol dimethacrylate			1025.2	1.45602
2083-91-2	Pentamethylsilanamine		359.15	740.02	1.437924
20830-75-5	Digoxin				
20830-81-3	Daunorubicin	481.15			
2084-18-6	3-Methyl-2-butanethiol	146.06	382.95		
2084-19-7	2-Pentanethiol	104.15	386.15	832.72	1.44122
2085-88-3	2-Methyl-2-phenyloxirane			1022.82	1.52322
20850-43-5	5-(Chloromethyl)-1,3-benzodioxole	293.65		1312.25	1.56602
20859-02-3	3-Methyl-L-valine				
2086-83-1	Berberine	418.15			
20893-30-5	2-Thiopheneacetonitrile			1155.25	1.54252
2090-14-4	Octadecahydrochrysene	388.15	626.15		
20902-45-8	3,3'-Dithiobis-D-valine	477.65			
2094-98-6	1,1'-Azobiscyclohexanecarbonitrile	373.15			
2095-57-0	5-Ethyldihydro-5-sec-butyl-2-thioxo-4,6(1H,5H)-pyrimidinedione	442.15			
2097-19-0	1-Phenylsilatrane	482.15			
20972-43-4	trans-Azoxybenzene	307.75		1159.026	
2100-17-6	4-Pentenal		377.15	852.2	1.41912
2101-86-2	1-Azido-4-methylbenzene	244.15		1052.723	
21020-24-6	3-Chloro-1-butyne		341.65	1421.825	1.421825
21020-27-9	4-Methyl-2-pentyne	162.85	346.15	711.225	1.40572
2103-57-3	2,3,4-Trimethoxybenzaldehyde				1.55472
2103-64-2	Gallein	573.15			
2104-64-5	O-Ethyl O-p-nitrophenyl benzenethiophosphonate	312.35		1272.5	1.59783
2104-96-3	Bromophos	329.45			
21040-45-9	trans-3-Phenyl-2-propen-1-ol acetate		538.15	1056.72	1.54252
21040-59-5	Codamine	400.15			
2107-69-9	5,6-Dimethoxy-1-indanone	392.65			
2107-76-8	5,7-Dihydroxy-4-methyl-2H-1-benzopyran-2-one	556.15			
2108-92-1	1,1-Dichlorocyclohexane	236.55	444.15	1155.92	1.48032
21087-29-6	trans-(3-Chloro-1-propenyl)benzene	281.65		1092.62	1.58512
21087-64-9	Metribuzin	399.95		1312	
2109-66-2	α-Methyl-4-morpholineethanol			1017.42	1.46382
2110-78-3	Methyl 2-hydroxy-2-methylpropanoate		404.15		1.40562
21129-27-1	4-Isopropyl-1-methylcyclohexanol		481.65	902	1.46192
2113-51-1	2-Iodo-1,1'-biphenyl			1551.125	1.66202
2113-57-7	3-Bromobiphenyl		573.15		1.64112
2113-58-8	3-Nitrobiphenyl	334.15			
2114-00-3	2-Bromo-1-phenyl-1-propanone		520.65	1429.82	1.57202
2114-11-6	Allyl carbamate				
2116-62-3	2-(2-Phenylethyl)pyridine	271.65	562.15	1046.5	
2116-65-6	4-Benzylpyridine	285.55	561.15	1061.22	1.58182
21211-65-4	2,2'-Dipyrrolylmethane	346.15			
2122-70-5	Ethyl 1-naphthylacetate	361.65			
2124-31-4	4'-(Dimethylamino)acetophenone	378.65			
2124-57-4	Menaquinone 7	327.15			
21248-00-0	6-Bromobenzo[a]pyrene	496.15			
21266-88-6	2,3-Dibromoheptane			1513.92	1.49922
21266-90-0	3,4-Dibromoheptane			1518.22	1.50102
2128-93-0	4-Benzoylbiphenyl	374.65	693.15		
21282-97-3	2-Acetoacetoxyethyl methacrylate			1122	1.45602
21291-99-6	1,2,3-Propanetriamine		463.15		
21293-29-8	Abscisic acid	433.15			
213-46-7	Picene	638.15	792.15		
2130-56-5	Benzidene-3,3'-dicarboxylic acid				
2131-18-2	Pentadecylbenzene	285.15	646.15	854.82	1.48152
2131-41-1	1,4,5-Trimethylnaphthalene	337.15			
2131-55-7	1-Chloro-4-isothiocyanatobenzene	319.15	522.65		
2132-80-1	4,4'-Dimethoxy-1,1'-biphenyl	448.15			
2134-29-4	3-Hydroxypropanal				
2136-89-2	1-Chloro-2-(trichloromethyl)benzene	302.55	536.15	1518.72	1.58362
2136-99-4	2,2',3,3',5,5',6,6'-Octachlorobiphenyl	433.75			
21368-68-3	Camphor, (±)-	450.85			
21370-71-8	trans-Octahydro-1(2H)-naphthalenone	306.15		986.2	1.484921
2138-22-9	4-Chloro-1,2-benzenediol	363.65			
2141-62-0	3-Ethoxypropanenitrile		444.15	928.515	1.40682
2142-01-0	2-Benzyl-1H-isoindole-1,3(2H)-dione	389.15		1343.18	
2142-63-4	1-(3-Bromophenyl)ethanone	280.65			1.57552
2142-73-6	1-(2,5-Dimethylphenyl)ethanone	255.05	505.65	996.319	1.52912
2146-38-5	1-Ethylcyclopentene	154.35	379.35	793.625	1.44122
215-58-7	Benzo[b]triphenylene	478.15			
2150-02-9	2,2'-Dimercaptodiethyl ether	193.15	490.15	1114.2	
2150-38-1	Methyl 3,4-dimethoxybenzoate	333.95	556.15		
2150-44-9	Methyl 3,5-dihydroxybenzoate	438.15			
2150-47-2	Methyl 2,4-dihydroxybenzoate	389.65			
2152-34-3	Pemoline				
21548-32-3	Fosthietan			1325	1.534825
2155-30-8	Methyl lactate, (±)-		417.95	1092.82	1.41412
2155-94-4	Allyldimethylamine		335.15	709.425	1.40102
2156-97-0	Dodecyl acrylate	277.15		872.72	
21564-17-0	BUSAN 72A				
21564-91-0	1,2,3,4-Tetrahydro-1,5-dimethylnaphthalene		512.15	941.2	1.5262
2157-01-9	Octyl methacrylate		511.15		
21570-35-4	2-Methyl-4-heptanol	192.15	440.15	820.72	1.4203
2159-75-3	Azobutane				
21593-23-7	Cephapirin	428.15			
21609-90-5	Leptophos	347.15		1532.5	
21615-34-9	2-Methoxybenzoyl chloride		527.15		
2162-92-7	1,2-Dichlorohexane		445.35	1085.15	
2162-98-3	1,10-Dichlorodecane	288.75		994.525	1.458625
2162-99-4	1,8-Dichlorooctane		519.15	1024.825	1.457225
2163-00-0	1,6-Dichlorohexane		478.15	1067.625	1.455525
2163-42-0	2-Methyl-1,3-propanediol	182.15	494.15	1015.2	1.44502
2163-48-6	Diethyl 2-propylmalonate		494.15	989.2	1.41972
2163-69-1	Cycluron	411.15			
2163-80-6	Sodium methylarsonate	388.15			
2164-08-1	Lenacil	563.15		1322.5	
2164-09-2	N-(3,4-Dichlorophenyl)-2-methyl-2-propenamide	395.75			
2164-17-2	N,N-Dimethyl-N'-[3-(trifluoromethyl)phenyl]urea	434.15			
21640-48-2	3-(3-Chlorophenyl)propanoic acid	350.15			
21650-65-7	cis-Azoxybenzene	360.15		1166.2	1.6332
2167-39-7	2-Methyloxetane		332.15	841.25	1.38852
21679-31-2	Chromium(III) 2,4-pentanedioate	481.85	618.15	1340	
21679-46-9	Cobalt(III) 2,4-pentanedioate	486.15			
2168-93-6	Dibutyl sulfoxide	305.15	563.15	831.723	1.46692
2169-87-1	2,3-Naphthalenedicarboxylic acid	517.65			
217-54-9	Dibenzo[b,k]chrysene	673.15			
217-59-4	Triphenylene	470.97	698.15		
2170-03-8	Dihydro-3-methylene-2,5-furandione	341.15			
2171-96-2	Methyl silyl ether	174.65	252.15		
21725-46-2	Cyanazine	438.75			
2173-56-0	Pentyl pentanoate	194.35	477.15	863.82	1.41642
21738-42-1	Oxamniquine	422.15			
2175-91-9	5-(1-Methylethylidene)-1,3-cyclopentadiene	274.15	428.15	881.2	1.54742
2176-62-7	Pentachloropyridine	397.15	553.15		
2176-98-9	Tetrapropylstannane	164.05	501.15	1106.52	1.47452
2177-47-1	2-Methyl-1H-indene	353.15	482.15	974.25	1.56522
2179-57-9	Diallyl disulfide			1023.715	
2179-59-1	Allyl propyl disulfide				1.52192
2179-60-4	Methyl propyl disulfide			980	1.50802
218-01-9	Chrysene	528.15	721.15	1274.2	
2181-42-2	Trimethylsulfonium iodide				
2182-66-3	Dimethyldiacetoxysilane	260.65	438.15	1054.02	1.40302
21862-63-5	trans-4-tert-Butylcyclohexanol	356.15			
21884-44-6	Luteoskyrin				
2189-60-8	Octylbenzene	237.15	536.15	856.22	1.48452
21923-23-9	Chlorthiophos				
2196-13-6	4-Pyridinecarbothioamide				
21964-44-3	1-Nonen-3-ol		466.65	824.21	1.438215
21968-17-2	Isopropylpropylamine		369.35		
2198-61-0	Isopentyl hexanoate		498.65	861.2	
2198-75-6	1,3-Dichloronaphthalene	335.45	564.15		
2198-77-8	2,7-Dichloronaphthalene	388.15			
2199-44-2	Ethyl 3,5-dimethylpyrrole-2-carboxylate	398.15			
2199-51-1	Ethyl 2,4-dimethylpyrrole-3-carboxylate	351.65	564.15		
2199-52-2	Ethyl 2,5-dimethylpyrrole-3-carboxylate	390.65	564.15		
2199-53-3	Ethyl 4,5-dimethylpyrrole-3-carboxylate	384.45			
22029-76-1	4-(2,6,6-Trimethyl-1-cyclohexen-1-yl)-3-buten-2-ol			924.32	1.49692
2203-80-7	5-Methyl-1-hexyne	148.55	364.15	727.42	
22037-28-1	3-Bromofuran		379.15	1660.62	1.49582
22042-59-7	Cartap hydrochloride	453.15			
22052-81-9	Perfluoroethyl ethyl ether		301.15		
22052-84-2	Perfluoroisopropyl methyl ether		302.15	1420.52	
2207-01-4	cis-1,2-Dimethylcyclohexane	223.32	402.85	796.32	1.43602
2207-03-6	trans-1,3-Dimethylcyclohexane	183.1	393.25	791.5	1.428425
2207-04-7	trans-1,4-Dimethylcyclohexane	236.25	392.45	771.5	1.418525
2207-27-4	1,2,3,4-Tetrachloro-5,5-dimethoxy-1,3-cyclopentadiene		382.15	1501.25	1.52822
2207-50-3	4,5-Dihydro-5-phenyl-2-oxazolamine	410.15			
22083-74-5	3-(1-Methyl-2-pyrrolidinyl)pyridine, (±)-		517.15	1008.22	1.52892
2209-86-1	2,2-Bis(chloromethyl)-1,3-propanediol	356.15			
2210-25-5	N-Isopropyl-2-propenamide	337.65			
2210-28-8	Propyl methacrylate		413.15	902.22	1.41902
2210-79-9	[(2-Methylphenoxy)methyl]oxirane			1088.42	
22104-78-5	2-Octen-1-ol			850.2	1.44702
2211-67-8	2,3-Dichlorobutane, (±)-	193.15	392.15	1105.25	1.440925
2211-68-9	trans-2-Chloro-2-butene	167.35	336.15	913.82	1.41902
2211-69-0	cis-2-Chloro-2-butene	155.85	338.15	923.92	1.42402
2211-70-3	2-Chloro-1-butene		331.15	910.715	1.416521
2211-98-5	Sodium 4-dodecylbenzenesulfonate	417.15			
2212-67-1	Molinate			1063.2	
2213-23-2	2,4-Dimethylheptane		405.15	711.525	1.40342
2213-32-3	2,4-Dimethyl-1-pentene	149.05	354.75	694.32	1.39862
2213-43-6	1-Piperidinamine		420.15	928.25	1.47502
2213-63-0	2,3-Dichloroquinoxaline	424.35			
22139-77-1	trans-5-(2-Phenylvinyl)-1,3-benzenediol	429.15			
22144-60-1	α-Propylbenzenemethanol, (R)-	289.15	505.15	974.02	1.51392
22144-77-0	Cytochalasin D	543.15			
2215-77-2	4-Phenoxybenzoic acid	434.15			
2216-12-8	1-Nitro-2-phenoxybenzene	253.15		1253.922	1.5752
2216-15-1	N,N-Diethyl-4-nitroaniline	350.65		1225.25	
2216-30-0	2,5-Dimethylheptane		408.15	719.82	1.40332
2216-32-2	4-Ethylheptane		414.15	724.125	1.40962
2216-33-3	3-Methyloctane	165.15	417.15	717.25	1.404025
2216-34-4	4-Methyloctane	157.15	415.15	716.25	1.403925
2216-51-5	2-Isopropyl-5-methylcyclohexanol, [1R-(1α,2β,5α)]-	315.25	487.15	903.15	1.46022
2216-52-6	2-Isopropyl-5-methylcyclohexanol, [1S-(1α,2α,5β)]-	251.15	484.85	897.22	1.46002
2216-68-4	Methyl-1-naphthylamine	447.15	567.65		1.67222
2216-69-5	1-Methoxynaphthalene	263.15	545.15	1096.314	1.694025
2216-92-4	Ethyl N-phenylglycinate	331.15	546.65		
2216-94-6	Ethyl 3-phenylpropynoate		538.15	1055.25	1.55202
22160-39-0	2-Methylpentanoic acid, (±)-		468.15	923.02	1.4132
22160-40-3	3-Methylpentanoic acid, (±)-	231.55	470.15	926.22	1.41592
2217-06-3	Bis(2,4,6-trinitrophenyl) sulfide	503.15			
2217-07-4	N,N-Dipropylaniline		514.15	910.42	1.52712
2217-41-6	5,6,7,8-Tetrahydro-1-naphthalenamine	311.15	551.15	1062.516	1.59002
2218-94-2	Nitron				
2219-66-1	1,4-Dibromo-2-butyne			2014.18	1.58818
2219-82-1	2-tert-Butyl-6-methylphenol	302.15	506.15	924.08	1.51952
22195-34-2	Guanadrel sulfate (2:1)	487.15			
222-93-5	Pentaphene	530.15			
22204-53-1	Naproxen	428.15			
2221-95-6	Fichtelite	319.15		938.022	1.50522
22224-92-6	Fenamiphos	322.15		1152	
2223-67-8	Neobornylamine	457.15			
2223-82-7	Di-2-propenoyl-2,2-dimethyl-1,3-propanediol				1.454225
22232-54-8	Carbimazole	396.65			
22232-71-9	Mazindol	471.15			
22252-43-3	7-Aminodeacetoxycephalosporanic acid				
2227-17-0	Pentac	395.15			
2227-79-4	Benzenecarbothioamide	390.15			
2230-70-8	2,4,4-Trimethylcyclohexanone		463.15	902.2	1.44932
22306-37-2	Bismuth acetate	523.15			
2231-57-4	Carbonothioic dihydrazide				
2233-00-3	3,3,3-Trichloro-1-propene	243.15	385.15	1367.2	1.48272
2234-13-1	Octachloronaphthalene	470.65			
2234-16-4	1-(2,4-Dichlorophenyl)ethanone	306.65			1.56402
2235-46-3	N,N-Diethylacetoacetamide				
2236-60-4	2-Amino-4-hydroxypteridine	633.15			
22368-82-7	Pithecolobine	341.15			
2237-30-1	3-Aminobenzonitrile	326.15	562.15		
22374-89-6	α-Methylbenzenepropanamine	416.15	496.15	928.915	1.51522
2238-07-5	Diglycidyl ether		533.15	1119.52	
224-41-9	Dibenz[a,j]anthracene	471.35			
224-42-0	Dibenz[a,j]acridine	492.75			
224-53-3	Dibenz[c,h]acridine	462.15			
22410-44-2	Methyl pentafluoroethyl ether		278.75		
2243-27-8	Nonanenitrile	223.65	498.15	817.82	1.42552
2243-35-8	2-(Acetyloxy)-1-phenylethanone	322.15	543.15	1116.965	1.503665
2243-42-7	2-Phenoxybenzoic acid	386.15	628.15	1155.35	
2243-47-2	3-Aminobiphenyl	304.65			
2243-62-1	1,5-Naphthalenediamine	462.15		1425	
2243-76-7	Alizarin Yellow R				
2243-83-6	2-Naphthalenecarbonyl chloride	324.15	578.15		
2243-98-3	1-Undecyne	248.15	469.15	772.82	1.43062
2244-07-7	Undecanenitrile		538.15	825.43	1.42933
2244-16-8	(S)-Carvone	288.15	504.15	965.2	1.49892
2244-21-5	Potassium dichloroisocyanurate				
22483-09-6	2,2-Dimethoxyethanamine	195.15		966.25	1.41702
225-51-4	Benz[c]acridine	405.15			
22509-74-6	N-Carbethoxyphthalimide	364.15			
2251-65-2	3-(Trifluoromethyl)benzoyl chloride		459.15	1383	1.47702
2254-94-6	3-Methyl-2(3H)-benzothiazolethione	363.15	608.15		
22564-99-4	Linalol		471.15	870.15	1.4627
2257-52-5	Isopropylhydrazine		380.15		
2259-96-3	Cyclothiazide	507.15			
226-36-8	Dibenz[a,h]acridine	499.75			
2260-50-6	Acetylcholine iodide	436.15			
22672-74-8	Isocorybulbine	460.65		1045.2	
2269-22-9	Aluminum 2-butoxide				
2270-20-4	Benzenepentanoic acid	332.15	583.15		
22717-57-3	Methyl 2-hydroxy-5-methylbenzoate	272.15	517.65	1167.325	1.535115
2272-45-9	4-Methyl-N-(phenylmethylene)aniline	308.15	591.15		
2274-11-5	1,2-Ethanediol, diacrylate			1093.526	
2275-18-5	Trimethoate	301.65			
2275-23-2	Vamidothion				
22768-19-0	cis-3-Methyl-2-heptene		395.15	725.25	1.4192
2277-23-8	2,3-Dihydroxypropyl decanoate	326.15			
22781-23-3	Bendiocarb	402.75		1252	
2279-76-7	Chlorotripropylstannane	249.65		1267.828	1.4910228
22809-37-6	6-Bromohexanoyl chloride				
22818-40-2	2-(4-Hydroxyphenyl)-D-glycine				
2283-08-1	2-Hydroxy-1-naphthalenecarboxylic acid	430.45			
22839-47-0	Aspartame	519.65			
2288-18-8	2-Phenyl-1,3-butadiene			925.2	1.54892
229-87-8	Phenanthridine	379.71	623.45		
2292-79-7	Diamantane	517.88			
22936-86-3	Cyprazine	443.55			
2294-71-5	Methyl 2-phenylbutanoate	350.65	501.15		
2295-31-0	2,4-Thiazolidinedione	401.15			
2295-58-1	1-(2,4,6-Trihydroxyphenyl)-1-propanone	448.65			
230-07-9	4,7-Phenanthroline	445.55			
230-27-3	Benzo[h]quinoline	324.09	614.45	1234.02	
230-46-6	1,7-Phenanthroline	350.35	633.15		
23012-10-4	2-Methyloxazole		360.65		
2303-16-4	Diallate				
2303-17-5	Triallate	307.15		1273.25	
2305-13-7	4-Hydroxy-3-methoxybenzenepropanol	338.15			1.554525
2306-88-9	Octyl octanoate	255.05	579.95	855.42	1.43522
2307-10-0	S-Propyl thioacetate		411.15	953.525	
23074-36-4	2-Bromo-1-butene	139.75	354.15	1320.915	1.45272
2310-17-0	Phosalone	321.85			
2310-98-7	2-Bromo-2-chloropropane		368.15	1495.2	1.45752
23103-98-2	Pirimicarb	363.65			
23109-05-9	α-Amanitin				
2312-35-8	Propargite			1102.5	
2313-65-7	3-Methyl-2-hexanol		426.15	822.025	1.419818
23135-22-0	Oxamyl	373.05		972.5	
2314-97-8	Trifluoroiodomethane		251.35		
23144-52-7	8-Chloro-1-octanol				1.456325
2315-36-8	2-Chloro-N,N-diethylacetamide				
2315-68-6	Propyl benzoate	221.55	504.15	1023.02	1.50002
2316-64-5	5-Bromo-2-hydroxybenzenemethanol	386.15			
2318-18-5	Senkirkin	470.15			
23184-66-9	Butachlor	268.15		1070.25	
23185-94-6	Cycloposine	541.15			
2319-97-3	[2.2]Metacyclophane	404.15	563.15		
2321-07-5	Fluorescein				
23214-92-8	Doxorubicin	503.15			
23255-69-8	Fusarenon X	455.15			
2326-89-8	Drimenin	406.15			
2328-24-7	α-Methylbenzeneacetic acid, (±)-	253.15	536.15	1100	1.52372
23282-20-4	Nivalenol				
23283-97-8	2-Isopropyl-5-methylcyclohexanol, [1S-(1α,2β,5β)]-	355.65	489.15		
23287-26-5	Methyl 2-hydroxy-3-methylbenzoate	302.15	508.15	1168.325	1.535416
23315-05-1	Elaiomycin				1.479825
23360-92-1	Leurosine	476.15			
2338-12-7	5-Nitro-1H-benzotriazole	490.15			
2338-37-6	L-Propoxyphene	348.65			
23422-53-9	Formetanate hydrochloride				
2344-70-9	α-Methylbenzenepropanol		512.15	989.916	1.51716
2344-80-1	(Chloromethyl)trimethylsilane		371.65	879.25	1.41752
2344-83-4	(3-Chloropropyl)trimethylsilane		424.15	878.92	1.43192
23444-65-7	Alkannin	422.15			
2345-26-8	Geranyl 2-methylpropanoate			899.715	1.45762
2345-27-9	2-Tetradecanone	306.65	562.15		
2345-28-0	2-Pentadecanone	312.15	567.15	818.239	
2345-34-8	4-(Acetyloxy)benzoic acid	461.65			
2346-00-1	4,5-Dihydro-2-methylthiazole	172.15	418.15	1067.25	1.52002
2346-81-8	3-Chlorohexane		394.15	868.42	1.41632
23465-76-1	Caroverine	342.15			
2348-81-4	2-Amino-1,4-naphthalenedione	480.15			
2348-82-5	2-Methoxy-1,4-naphthalenedione	456.15			
2349-67-9	5-Amino-1,3,4-thiadiazole-2(3H)-thione	516.15			
23505-41-1	Pirimiphos-ethyl			1142	
2351-13-5	1,3-Bis(bromomethyl)tetramethyldisiloxane		506.15	1391.825	1.471925
23511-70-8	2-Phenoxyethyl butanoate		524.15	1038.821	
2356-61-8	Trifluoromethyl 1,1,2,2-tetrafluoroethyl ether	132.15	269.85		
23564-05-8	Thiophanate-methyl				
23578-35-0	2,5-Dimethyl-2,5-hexanediamine		457.15	848.515	1.44592
2358-84-1	Diethylene glycol dimethacrylate			1082.12	1.457125
23580-51-0	3-Methyl-1-octyn-3-ol		447.15	854.72	1.4431
23593-75-1	Clotrimazole	421.15			
2361-96-8	N-Acetyl-L-phenylalanine, ethyl ester	366.15			
2362-10-9	1,3-Bis(chloromethyl)tetramethyldisiloxane	183.15	478.15	1045.2	1.43982
2365-48-2	Methyl mercaptoacetate				1.46572
2366-36-1	1,1,1-Trichloro-2-fluoroethane		359.65		
2366-52-1	1-Fluorobutane	139.15	304.15	778.92	1.33962
2367-82-0	1,2,3,5-Tetrafluorobenzene	226.95	357.45	1319.25	1.40352
2370-12-9	2,2-Dimethyl-1-pentanol				
2370-13-0	2,2-Dimethyl-1-hexanol				
2370-14-1	2,2-Dimethyl-1-octanol		484.15	842	
2370-88-9	2,4,6,8-Tetramethylcyclotetrasiloxane	208.15	407.65	991.22	1.38702
2373-51-5	Chloro(methylthio)methane		378.15	1153.25	1.49632
2373-76-4	trans-o-Methylcinnamic acid	448.15			
23777-55-1	Methyldiborane(6)				
23783-42-8	2,5,8,11-Tetraoxatridecan-13-ol			987.25	1.44532
2379-55-7	2,3-Dimethylquinoxaline	379.45			
2379-90-0	1-Amino-4-hydroxy-2-methoxy-9,10-anthracenedione				
238-84-6	11H-Benzo[a]fluorene	462.75	678.15		
2381-15-9	10-Methylbenz[a]anthracene	457.15			
2381-16-0	9-Methylbenz[a]anthracene	425.65			
2381-21-7	1-Methylpyrene	347.15	683.15		
2381-31-9	8-Methylbenz[a]anthracene	429.65		1231	
2382-43-6	(2-Hydroxypropyl)trimethylammonium chloride	438.15			
2382-96-9	2(3H)-Benzoxazolethione	468.25			
23843-52-9	9,10-Dihydroxyoctadecanedioic acid, (R*,R*)-(±)-	399.15			
2385-70-8	2-Bromobutanoic acid, (±)-	271.15		1564.12	
2385-81-1	Furethidine	301.15			1.52192
2385-85-5	Mirex				
2386-60-9	1-Butanesulfonyl chloride				1.45592
2387-23-7	N,N'-Dicyclohexylurea	506.95			
2388-14-9	p-Isopropenylisopropylbenzene	242.55	495.15	893.62	1.52382
239-64-5	13H-Dibenzo[a,i]carbazole	494.45			
2390-59-2	Ethyl Violet				
2393-23-9	4-Methoxybenzenemethanamine		509.65	1050.15	1.54622
23947-60-6	Ethirimol	434.35		1212.5	
23950-58-5	Propyzamide	429.65			
2396-60-3	(4-Methoxyphenyl)phenyldiazene	329.15	613.15	1127.5	
2396-63-6	1,6-Heptadiyne	188.35	384.15	816.417	1.45117
2396-65-8	1,8-Nonadiyne	245.85	438.15	815.82	1.44902
2396-78-3	Methyl 3-hexenoate			913.225	1.424023
2396-83-0	Ethyl 3-hexenoate		439.65	895.72	1.42552
2396-84-1	Ethyl trans,trans-2,4-hexadienoate		468.65	950.62	1.49512
2398-37-0	3-Bromoanisole		484.15		1.56352
2398-81-4	3-Pyridinecarboxylic acid 1-oxide				
2399-48-6	Tetrahydrofurfuryl acrylate	213.15		1061.2	
2401-73-2	1,3-Dichloro-1,1,3,3-tetramethyldisiloxane	235.65	411.15	1038.2	
2401-85-6	1-Chloro-2,4-dinitronaphthalene	419.65			
24017-47-8	Triazofos	278.15		1251.42	
2402-06-4	trans-1,2-Dimethylcyclopropane	123.45	301.15	664.825	1.37132
2402-78-0	2,6-Dichloropyridine	360.15	484.15		
2402-79-1	2,3,5,6-Tetrachloropyridine	363.15	523.65		
2403-55-6	4-(2-Methylpropenyl)morpholine	393.15			1.46632
2403-88-5	4-Hydroxy-2,2,6,6-tetramethylpiperidine	403.15	486.65		
2404-35-5	Bromocycloheptane			1308.02	1.49962
2404-44-6	Octyloxirane				
2408-20-0	Allyl propanoate		396.15	914.02	1.41052
2408-37-9	2,2,6-Trimethylcyclohexanone	241.35	451.65	904.318	1.44702
24083-13-4	4-(Octyloxy)benzaldehyde				
2409-52-1	Diethyl methylenesuccinate	331.65	501.15	1046.72	1.43772
2409-55-4	2-tert-Butyl-4-methylphenol	325.45	509.15	924.775	1.496975
2411-89-4	o-Cresolphthalein complexone	459.15			
2412-73-9	Cyclohexyl benzoate	263.15	558.15	1042.92	1.52002
2415-85-2	N-(4-Methylphenyl)-3-oxo-butanamide	368.15			
24157-81-1	2,6-Diisopropylnaphthalene	343.15			
2416-94-6	2,3,6-Trimethylphenol	336.15			