CASRN	Chemical	Tm	Tb	rho
14447-89-3	Tungsten(VI) dioxydiiodide			6390
14452-39-2	Aluminum perchlorate nonahydrate			2000
14456-47-4	Terbium(III) bromide	1103.15	1763.15	
14456-48-5	Dysprosium(III) bromide	1152.15		
14456-51-0	Thulium(III) bromide	1227.15		
14456-53-2	Lutetium bromide	1298.15		
14457-83-1	Magnesium carbonate trihydrate	438.15		1800
14457-84-2	Aluminum oxyhydroxide			3380
14457-87-5	Cerium(III) bromide	1005.15	1730.15	
14459-59-7	Molybdenum(VI) oxytetrafluoride	370.35	459.15	
14459-95-1	Potassium ferrocyanide trihydrate			1850
14464-46-1	Silicon dioxide (cristobalite)	1995.15	3223.15	2334
14474-33-0	Scandium iodide	1226.15		
14475-63-9	Zirconium(IV) hydroxide			3250
14486-19-2	Cadmium tetrafluoroborate			1600
1449-65-6	Methylgermane	115.15	250.15	3.706
14518-81-1	Phosphoryl bromide chloride fluoride		352.15	
14519-18-7	Strontium bromate monohydrate			3773
14521-14-3	Octafluorotrisilane	271.95	315.15	
14521-15-4	Decafluorotetrasilane	341.15	358.25	
14521-18-7	Ruthenium(V) fluoride	374.15	500.15	3900
14523-22-9	Rhodium carbonyl chloride	397.15		
14553-44-7	Thorium orthosilicate			6700
14590-19-3	Cobalt(II) selenate pentahydrate			2510
14639-94-2	Ammonium hexafluorogallate			2100
14639-97-5	Ammonium tetrachlorozincate			1879
14639-98-6	Ammonium pentachlorozincate			1810
14644-61-2	Zirconium(IV) sulfate			3220
14674-72-7	Calcium chlorite			2710
14689-45-3	Cadmium 2,4-pentanedioate	508.15		
14691-44-2	Trigermane	167.55	383.65	1150
14691-47-5	Tetragermane		450.05	
14693-61-9	Hexasilane	228.45	466.75	847
14693-65-3	Heptasilane	243.05	499.95	859
14693-81-3	Tantalum(V) iodide	769.15	816.15	5800
14693-82-4	Indium(III) phosphate			4900
1470-61-7	Silver(I) diethyldithiocarbamate	446.15		
14720-21-9	Gold(III) fluoride			6750
14721-21-2	Copper(II) chlorate hexahydrate	338.15		
14779-70-5	Tribromogermane	248.15		
14781-45-4	Copper(II) hexafluoro-2,4-pentanedioate	371.15		
14808-60-7	Silicon dioxide (α-quartz)		3223.15	2648
14836-60-3	Mercury(I) nitrate dihydrate			4800
14868-53-2	Pentasilane	200.35	426.35	827
14868-54-3	2-Silyltetrasilane	163.25	419.35	820
14868-55-4	2-Silylpentasilane	194.75	458.35	840
14871-56-8	Barium strontium tungstate	1673.15		
14871-79-5	Barium hypophosphite monohydrate			2900
14884-42-5	Chromium(V) fluoride	307.15	390.15	
14885-60-0	Hydrogen-t1	18.45	23.55	
14885-61-1	Hydrogen-d1,t1	19.65	34.25	
14890-41-6	Vanadium(II) bromide			4580
14933-38-1	Americium(III) bromide			6850
14940-41-1	Iron(II) phosphate octahydrate			2580
14940-65-9	Water-t2	277.63	374.66	1213.825
1495-50-7	Cyanogen fluoride	191.15	227.15	1.84
14965-52-7	Trichlorofluorosilane		285.4	6.272
14977-61-8	Chromium(VI) dichloride dioxide	176.65	390.15	1910
14984-81-7	Selenium dioxydifluoride	173.65	264.75	6.089
14986-21-1	Hexachlorodisiloxane	245.15	410.15	
15060-62-5	Nickel(II) selenate hexahydrate			2314
15098-87-0	Aluminum fluoride trihydrate			1914
151-50-8	Potassium cyanide	895.15		1550
15120-50-0	Pentamethylstibine	254.15	400.15	
15123-80-5	Aluminum molybdate	1223.15		
15123-90-7	Strontium thiosulfate pentahydrate			2170
15168-20-4	Copper(II) selenite dihydrate			3310
15179-32-5	Sulfur fluoride hypofluorite	187.15	238.05	6.624
15192-14-0	Xenon difluoride trioxide	219.05		
15192-18-4	Ytterbium(II) fluoride	1680.15		
15192-26-4	Tellurium tetrafluoride	402.15		
15192-42-4	Rhenium(IV) fluoride			7490
15195-33-2	Niobium(V) dioxyfluoride			4000
15195-53-6	Niobium(III) fluoride			4200
15230-48-5	Dichlorogermane	205.15	342.65	1900
15238-00-3	Cobalt(II) iodide	793.15		5600
15244-35-6	Cadmium sulfate octahydrate			3080
15280-53-2	Gadolinium(III) acetate tetrahydrate			1610
15280-57-6	Erbium acetate tetrahydrate			2110
15280-58-7	Ytterbium(III) acetate tetrahydrate			2090
15282-88-9	Lead(II) 2,4-pentanedioate	416.15		
1529-48-2	Dichlorodimethylgermane	251.15	397.15	1490
15293-74-0	Lithium metaborate dihydrate			1800
15321-51-4	Iron nonacarbonyl			2850
15364-10-0	Xenon fluoride undecafluoroantimonate	336.15		3690
15364-94-0	Manganese(II) perchlorate hexahydrate			2100
15385-57-6	Mercury(I) iodide	563.15		7700
15385-58-7	Mercury(I) bromide			7307
15468-32-3	Silicon dioxide (tridymite)		3223.15	2265
15469-38-2	Iron(III) fluoride trihydrate			2300
15474-63-2	Dysprosium(III) iodide	1251.15		
15492-38-3	Rhodium(III) iodide			6400
15513-84-5	Vanadium(II) iodide			5440
15513-85-6	Zirconium(II) iodide	1100.15		
15513-94-7	Vanadium(III) iodide			5210
15520-84-0	Cobalt(III) nitrate			3000
15552-14-4	Barium calcium tungstate	1693.15		
155698-29-6	Phosphorothioc dichloride fluoride	177.15	337.85	
15572-25-5	Thallium(I) selenide	613.15		
15578-26-4	Tin(II) pyrophosphate			4009
15587-39-0	Pentagermane		507.15	
15587-72-1	Rubidium hydrogen sulfate	481.15		2900
15593-61-0	Magnesium selenite hexahydrate			2090
15597-39-4	Phosphorus(III) dibromide fluoride	158.15	351.65	
15597-40-7	Phosphorus(III) bromide difluoride	139.35	257.05	6.085
15597-63-4	Phosphorus(III) dichloride fluoride	129.15	287	4.941
15597-88-3	Chromium(IV) chloride			7.922
156-62-7	Calcium cyanamide	1613.15		2290
15607-89-3	Sulfur bromide pentafluoride	194.15	276.25	8.459
15608-29-4	Rhodium(III) bromide			5560
15635-87-7	Iridium(III) 2,4-pentanedioate	543.15		
15653-01-7	Cerium(III) 2,4-pentanedioate trihydrate	423.15		
15696-40-9	Osmium carbonyl	497.15		3480
15750-45-5	Magnesium nitrate dihydrate			1450
15752-46-2	Plutonium(III) bromide	954.15		6750
15829-53-5	Mercury(I) oxide			9800
15845-52-0	Lead(II) hydrogen phosphate			5660
15851-44-2	Cadmium tellurite	968.15		
15861-05-9	Fluoramine			1.431
15875-18-0	Plumbane		260.15	
1590-87-0	Disilane	143.75	258.35	2.543
1592-23-0	Calcium stearate	453.15		
15942-63-9	Diarsine		373.15	
15947-41-8	Americium(IV) fluoride			7230
15947-57-6	2,2-Disilyltrisilane	215.35	407.45	815
1600-27-7	Mercury(II) acetate			3280
1603-84-5	Carbon oxyselenide	148.75	251.45	4.372
16037-50-6	Potassium chlorochromate			2500
16056-61-4	Iodosyl pentafluoride	277.65		
16122-03-5	Nickel(II) ammonium chloride hexahydrate			1650
1631-78-3	Methylstannane		274.55	5.59
1633-05-2	Strontium carbonate	1767.15		3785
16399-77-2	Iron(II) chloride dihydrate			2390
16406-48-7	Ruthenium pentacarbonyl	251.15		
16406-49-8	Osmium pentacarbonyl	258.15		
16469-16-2	Praseodymium(III) hydroxide			3700
16544-92-6	Cobalt(II) chloride dihydrate			2477
16671-27-5	Chromium(III) fluoride trihydrate			2200
16674-78-5	Magnesium acetate tetrahydrate			1450
16689-88-6	Thorium hydride			9500
16712-20-2	Lithium chloride monohydrate			1780
16721-80-5	Sodium hydrogen sulfide	623.15		1790
16731-55-8	Potassium metabisulfite			2300
16812-54-7	Nickel(II) sulfide	1249.15		5500
16853-85-3	Lithium aluminum hydride			917
16860-99-4	Sulfur fluoride [SSF2]	108.55	262.55	4.174
16871-90-2	Potassium hexafluorosilicate			2270
16872-11-0	Tetrafluoroboric acid			1800
16893-85-9	Sodium hexafluorosilicate	1120.15		2700
16903-35-8	Chloroauric(III) acid tetrahydrate			3900
16919-19-0	Ammonium hexafluorosilicate			2011
16919-31-6	Ammonium hexafluorozirconate(IV)			1154
16919-58-7	Ammonium hexachloroplatinate(IV)			3065
16921-30-5	Potassium hexachloroplatinate			3500
16921-96-3	Iodine heptafluoride			10.62
16923-58-3	Sodium hexachloroplatinate(IV) hexahydrate			2500
16923-95-8	Potassium hexafluorozirconate(IV)			3480
16924-00-8	Potassium fluorotantalate	1003.15		5240
16925-25-0	Sodium hexafluoroantimonate			3375
16925-39-6	Calcium hexafluorosilicate dihydrate			2250
16940-66-2	Sodium borohydride			1070
16940-92-4	Ammonium hexachloroiridate(IV)			2856
16941-11-0	Ammonium hexafluorophosphate			2180
16941-12-1	Hexachloroplatinic acid	333.15		
16949-15-8	Lithium borohydride	541.15		660
16962-07-5	Aluminum borohydride	208.65	317.65	
16962-47-3	Ammonium hexafluorogermanate	653.15		2564
16962-48-4	Rubidium hexafluorogermanate	969.15		
17014-71-0	Potassium peroxide	818.15		
17026-29-8	Rhenium(VI) oxytetrafluoride	381.15	444.85	
17029-21-9	Rhenium(VII) fluoride	321.45	346.85	4320
17083-68-0	Bromoauric(III) acid pentahydrate	300.15		
17125-80-3	Barium hexafluorosilicate			4290
17194-00-2	Barium hydroxide	681.15		
17242-52-3	Potassium amide	608.15		
17375-41-6	Iron(II) sulfate monohydrate			3000
1762-95-4	Ammonium thiocyanate	422.15		1300
17702-41-9	Decaborane(14)	371.93	486.15	940
17786-31-1	Cobalt dodecacarbonyl			2090
1779-25-5	Chlorodiisobutylaluminum	233.15		950
17829-86-6	Samarium(III) acetate trihydrate			1940
18088-11-4	Rubidium oxide	778.15		4000
18282-10-5	Tin(IV) oxide	1903.15		6850
18283-93-7	Tetraborane(10)	153.15	291.15	2.18
18288-22-7	Bismuth hydride	206.15	290.15	8.665
18356-71-3	Dichlorodifluorosilane	229.15	241.15	5.599
18433-84-6	Pentaborane(11)	151.15	338.15	
18480-07-4	Strontium hydroxide	808.15		3625
18624-44-7	Iron(II) hydroxide			3400
1863-63-4	Ammonium benzoate	471.15		1260
18810-58-7	Barium azide			2936
18820-29-6	Manganese(II) sulfide (α form)	1803.15		4000
18855-94-2	Hafnium(IV) sulfide			6030
18868-43-4	Molybdenum(IV) oxide			6470
18909-68-7	Rubidium fluoroborate			2820
18909-69-8	Cesium fluoroborate			3200
18933-05-6	Manganese(II) hydroxide			3260
19073-56-4	Rubidium cyanide			2300
19086-20-5	Magnesium sulfite trihydrate			2120
19139-47-0	Cerium(II) iodide	1081.15		
19168-23-1	Ammonium hexachloropalladate(IV)			2418
19197-73-0	Potassium metaarsenate	933.15		
19287-45-7	Diborane	108.3	180.66	1.131
19357-86-9	Ytterbium(II) iodide	1045.15		
19423-81-5	Gadolinium(III) chloride hexahydrate			2424
19423-87-1	Ytterbium(III) chloride hexahydrate			2570
19465-30-6	Nonaborane(15)	275.85		
19584-30-6	Rhodium dodecacarbonyl			2520
19597-69-4	Lithium azide			1830
19598-90-4	Gadolinium(III) nitrate hexahydrate			2330
19624-22-7	Pentaborane(9)	226.41	333.25	600
19648-83-0	Cobalt(II) hexafluoro-2,4-pentanedioate	470.15		
19648-88-5	Lead(II) hexafluoro-2,4-pentanedioate	428.15	483.15	
19783-14-3	Lead(II) hydroxide			5690
20193-58-2	Molybdenum(III) fluoride			4640
20213-56-3	Tungsten(V) oxytribromide			5900
20281-00-9	Cesium oxide	768.15		4650
20328-94-3	Xenon pentafluoride hexafluoroarsenate	403.65		3510
20344-49-4	Iron(III) hydroxide oxide			4260
20398-06-5	Thallium(I) ethanolate	270.15		3490
20405-64-5	Copper(I) selenide	1386.15		6840
20427-56-9	Ruthenium(VIII) oxide	298.55	313.15	3290
20427-58-1	Zinc hydroxide			3050
20427-59-2	Copper(II) hydroxide			3370
20548-54-3	Calcium sulfide	2797.15		2590
20601-83-6	Mercury(II) selenide			8210
20610-49-5	Radium fluoride			6700
20644-15-9	Sodium hexafluorophosphate monohydrate			2369
20661-21-6	Indium(III) hydroxide			4400
20665-52-5	Gallium(III) oxide hydroxide			5230
20667-12-3	Silver(I) oxide	1100.15		7200
20694-39-7	Manganese(II) nitrate tetrahydrate			2130
20762-60-1	Potassium azide			2040
20770-09-6	Tin(IV) selenide	923.15		5000
20816-12-0	Osmium(VIII) oxide	313.75	404.35	5100
20859-73-8	Aluminum phosphide	2823.15		2400
20910-28-5	Uranyl sulfate trihydrate			3280
21041-93-0	Cobalt(II) hydroxide			3600
21041-95-2	Cadmium hydroxide			4790
21109-95-5	Barium sulfide	2500.15		4300
21159-32-0	Cesium cyanide	623.15		3340
21264-43-7	Indium(II) bromide			4220
21351-79-1	Cesium hydroxide	615.45		3680
21548-73-2	Silver(I) sulfide	1109.15		7230
21645-51-2	Aluminum hydroxide			2420
21651-19-4	Tin(II) oxide	1250.15		6450
21679-31-2	Chromium(III) 2,4-pentanedioate	481.15	618.15	1340
21679-46-9	Cobalt(III) 2,4-pentanedioate	486.15		
21907-50-6	Cesium trifluoroacetate	388.15		
21908-53-2	Mercury(II) oxide			11140
22015-35-6	Europium(II) iodide	853.15		
22205-45-4	Copper(I) sulfide	1402.15		5600
22205-57-8	Cesium amide			3700
2223-93-0	Cadmium stearate	407.15		1210
22306-37-2	Bismuth acetate	523.15		
22326-55-2	Barium hydroxide monohydrate			3743
22398-80-7	Indium phosphide	1335.15		4810
22527-13-5	Xenon fluoride hexafluororuthenate	383.15		3780
22537-19-5	Lawrencium	1900.15		
22585-64-4	Bromyl fluoride	264.15		
22750-54-5	Cadmium chlorate dihydrate			2280
22750-57-8	Cesium azide	599.15		3500
22756-36-1	Rubidium azide	590.15		2790
22831-39-6	Magnesium silicide	1375.15		1990
22831-42-1	Aluminum arsenide	2013.15		3760
22852-11-5	Thulium(II) chloride	991.15		
22852-67-1	Mercury(II) nitrate dihydrate			4780
22986-54-5	Actinium chloride			4810
23276-90-6	Chromium(VI) tetrafluoride oxide	328.15		
23303-71-1	Lithium bromide monohydrate			3460
23370-59-4	Iridium(III) fluoride			8000
23377-53-9	Rhenium(VII) oxypentafluoride	316.95	346.15	
23414-72-4	Zinc permanganate hexahydrate			2450
23611-30-5	Rubidium peroxide	843.15		3800
23777-80-2	Hexaborane(10)	210.85		670
2404-52-6	Phosphorothioc trifluoride	124.35	220.9	4.906
2406-52-2	Stannane	127.15	221.35	5.017
2408-36-8	Lithium cyanide	433.15		
24094-93-7	Chromium nitride (CrN)			5900
24304-00-5	Aluminum nitride	3273.15		3255
24415-00-7	Germanium(II) bromide	395.15		
24422-20-6	Trichlorofluorogermane	223.35	310.65	
24422-21-7	Dichlorodifluorogermane	221.35	270.35	7.419
2452-01-9	Zinc laurate	401.15		
24567-53-1	Phosphonium chloride			2.88
24597-12-4	Gallium(II) chloride	445.55	808.15	2740
24613-38-5	Cobalt(II) chromate			4000
24621-17-8	Zirconium(II) bromide	1100.15		
24621-18-9	Zirconium(III) bromide	1000.15		
24621-21-4	Niobium nitride	2323.15		8470
24646-85-3	Vanadium nitride	2323.15		6130
2466-09-3	Diphosphoric acid	344.65		
24719-19-5	Cobalt(II) arsenate octahydrate			3000
25094-02-4	Calcium chloride tetrahydrate			1830
25152-52-7	Aluminum antimonide	1338.15		4260
2524-02-9	Phosphorothioc chloride difluoride	117.95	279.45	5.579
25324-56-5	Tin monophosphide	813.15		
25402-50-0	Iodyl trifluoride	314.15		
25455-73-6	Silver[II] oxide [Ag2O2]			7440
25469-93-6	Neodymium(II) chloride	1114.15		
25502-05-0	Ytterbium(II) bromide	946.15		
2551-62-4	Sulfur hexafluoride			5.97
25583-20-4	Titanium nitride	3220.15		5210
25617-97-4	Gallium nitride			6100
25617-98-5	Indium nitride	1373.15		6880
25658-42-8	Zirconium nitride	3225.15		7090
25658-43-9	Uranium nitride	3078.15		14300
25659-31-8	Lead(II) iodate			6500
25764-08-3	Cerium nitride	2830.15		7890
25764-09-4	Praseodymium nitride			7460
25764-10-7	Lanthanum nitride			6730
25764-11-8	Neodymium nitride			7690
25764-15-2	Gadolinium nitride			9100
25817-87-2	Hafnium nitride	3583.15		13800
25895-60-7	Sodium cyanoborohydride			1120
25909-39-1	Platinum(III) chloride			5260
26124-86-7	Barium metaborate monohydrate			3300
26134-62-3	Lithium nitride	1086.15		1270
26342-61-0	Chromium phosphide			5250
2644-70-4	Hydrazine hydrochloride	362.15		1500
26508-33-8	Iron phosphide (FeP)			6070
26628-22-8	Sodium azide			1846
26686-77-1	Magnesium orthosilicate	2170.15		3210
2696-92-6	Nitrosyl chloride	213.55	267.65	2.676
2699-79-8	Sulfuryl fluoride	137.35	217.75	4.172
27016-73-5	Cobalt arsenide (CoAs)	1453.15		8220
27016-75-7	Nickel arsenide	1240.15		7770
27043-84-1	Zinc borate			3640
27133-66-0	Barium potassium chromate			3630
27218-16-2	Chlorine perchlorate	156.15		1810
27709-53-1	Potassium uranyl sulfate dihydrate			3360
27860-83-9	Zinc fluoroborate hexahydrate			2120
28041-86-3	Potassium cobalt(II) selenate hexahydrate			2510
28265-11-4	Hexadecaborane(20)	383.15		
28300-74-5	Antimony potassium tartrate trihydrate			2600
289-22-5	Cyclopentasilane	262.65	467.45	963
28950-34-7	Tetrasulfur tetranitride	451.35		
291-59-8	Cyclohexasilane	289.65	499.15	
298-14-6	Potassium hydrogen carbonate			2170
300-92-5	Aluminum distearate	418.15		
301-04-2	Lead(II) acetate	553.15		3250
301-08-6	Lead(II) 2-ethylhexanoate			1560
3012-65-5	Ammonium hydrogen citrate			1480
302-01-2	Hydrazine	274.69	386.7	1003.6
30708-80-6	Chlorosyl trifluoride	231.15	300.15	
30737-24-7	Thallium(I) oxalate			6310
30903-87-8	Lithium oxalate			2121.17
30937-52-1	Rhenium(V) fluoride	321.15	494.45	
3095-65-6	Ammonium hydrogen tartrate			1680
31052-14-9	Technetium(V) fluoride	323.15		
31052-43-4	Rubidium selenide	1006.15		3220
31083-74-6	Rubidium sulfide	698.15		2910
31234-26-1	Rhenium(VI) chloride	302.15		
3141-12-6	Arsenic(III) ethoxide		439.15	1210
31576-40-6	Osmium(V) fluoride	343.15	506.15	
3164-29-2	Ammonium tartrate			1601
32248-43-4	Samarium(II) iodide	793.15		
32287-65-3	Aluminum fluoride monohydrate			2170
3236-82-6	Niobium(V) ethoxide	278.15	476.15	1258
3251-23-8	Copper(II) nitrate	528.15		
32823-06-6	Aluminum metaphosphate	1798.15		2780
32839-04-6	Mercury(II) benzoate monohydrate	438.15		
333-20-0	Potassium thiocyanate	446.15		1880
3333-67-3	Nickel(II) carbonate			4389
33689-80-4	Actinium fluoride			7880
33689-81-5	Actinium bromide			5850
3396-11-0	Cesium acetate	467.15		
3486-35-9	Zinc carbonate			4434
3495-36-1	Cesium formate			1017
34979-62-9	Selenium chloride pentafluoride	254.15	277.65	
353-50-4	Carbonyl fluoride	161.89	188.58	2.698
35718-37-7	Xenon trifluoride undecafluoroantimonate	355.15		3980
35788-00-2	Copper(I) sulfite monohydrate			3830
36377-94-3	Dysprosium(II) iodide	932.15		
36509-15-6	Osmium(VI) tetrachloride oxide	305.15	473.15	
3687-31-8	Lead(II) arsenate			5800
37248-34-3	Potassium sulfide pentahydrate	333.15		
37265-86-4	Barium yttrium tungsten oxide	1743.15		
37265-91-1	Perbromyl fluoride	163.15		
37773-49-2	Platinum(IV) chloride			4300
3811-04-9	Potassium chlorate	630.15		2340
38680-84-1	Chloryl trifluoride	191.95	251.55	5.087
38989-47-8	Pentafluoroorthoselenic acid	311.15	320.15	
39290-85-2	Copper(II) borate			3859
3931-89-3	Phosphorothioc tribromide	310.95		2850
39368-69-9	Rhenium(V) chloride	493.15		4900
39409-82-0	Magnesium carbonate hydroxide tetrahydrate			2300
39416-30-3	Barium orthovanadate	980.15		5140
39733-35-2	Ammonium magnesium chloride hexahydrate			1460
39796-98-0	Xenon pentafluoride hexafluororuthenate	425.15		3790
39797-63-2	Xenon fluoride hexafluoroantimonate	383.15		3920
3982-91-0	Phosphorothioc trichloride	236.95	398.15	1635
409-21-2	Silicon carbide (hexagonal)	3103.15		3160
4109-96-0	Dichlorosilane	151.15	281.45	4.129
41422-43-9	Tetramethyldistibine	290.15		
41591-55-3	Hydroxylamine hydrobromide			2350
42246-24-2	Rhenium(VII) trioxyfluoride	420.15	437.15	
4255-07-6	Zinc oxalate dihydrate			2560
42739-38-8	Ammonium valerate	381.15		
43093-20-5	Tridecaborane(19)	317.15		
4485-12-5	Lithium stearate	493.15		
460-19-5	Cyanogen	245.32	252.05	2.127
463-58-1	Carbon oxysulfide	134.35	223.15	2.456
471-34-1	Calcium carbonate (calcite)	1073.15		2710
497-19-8	Sodium carbonate	1129.15		2540
504-64-3	Carbon suboxide	160.65	279.95	2.781
50432-32-1	Xenon fluoride hexafluoroarsenate	372.15		3620
506-64-9	Silver(I) cyanide			3950
506-65-0	Gold(I) cyanide			7200
506-66-1	Beryllium carbide	2400.15		1900
506-68-3	Cyanogen bromide	325.15	334.65	2015
506-77-4	Cyanogen chloride	266.6	286.15	1186.2
506-78-5	Cyanogen iodide	419.85		2840
506-80-9	Carbon diselenide	229.45	398.65	2682.32
507-16-4	Thionyl bromide	223.15	413.15	
50801-97-3	Samarium(II) bromide	942.15		
50813-65-5	Barium carbide			3740
513-74-6	Ammonium dithiocarbamate			1450
513-77-9	Barium carbonate	1828.15		4308
513-78-0	Cadmium carbonate			5026
513-79-1	Cobalt(II) carbonate			4200
5145-48-2	Magnesium carbonate dihydrate			2800
516-02-9	Barium oxalate			2658
51621-05-7	Ruthenium(III) fluoride			5360
51898-99-8	Bismuth molybdate			5950
52003-58-4	Ammonium lactate	365.15		
527-09-3	Copper(II) gluconate	429.15		
52788-53-1	Gadolinium(III) nitrate pentahydrate			2410
52988-75-7	3-Silylpentasilane	204.15	452.65	843
53214-07-6	Tellurium decafluoride	239.45	332.15	
5329-14-6	Sulfamic acid			2150
533-51-7	Silver(I) oxalate			5030
53319-44-1	Selenium oxytetrafluoride	285.15	338.15	
534-16-7	Silver(I) carbonate	491.15		6077
534-17-8	Cesium carbonate	1066.15		4240
5341-61-7	Hydrazine dihydrochloride			1420
53731-35-4	Manganese(II) pyrophosphate	1469.15		3710
540-69-2	Ammonium formate	389.15		1270
540-72-7	Sodium thiocyanate	560.15		
541-43-5	Barium formate			3210
54120-05-7	Osmium(IV) fluoride	503.15		
542-83-6	Cadmium cyanide			2230
542-84-7	Cobalt(II) cyanide			1872
543-80-6	Barium acetate			2470
543-90-8	Cadmium acetate	528.15		2340
543-94-2	Strontium acetate			2100
544-17-2	Calcium formate			2020
544-60-5	Ammonium oleate	294.15		
544-92-3	Copper(I) cyanide	747.15		2900
54496-71-8	Cobalt(III) fluoride dihydrate			2190
546-67-8	Lead(IV) acetate	448.15		2230
546-89-4	Lithium acetate	559.15		