CASRN	Chemical Name	MW	Tc	T s, K 	Saturation pressure, Pa	rho(l), kg/m^3	rho(g), kg/m^3	Hvap, J/mol	cp(l), J/(mol*K)	cp(g), J/(mol*K) 	mu(l) Pa*s	mu(g) Pa*s	k(l), W/(m K)	k(g) , W/(m K) 	Pr(l)	Pr(g)	Surface tension, N/m 	Beta thermal expansion coefficient, /K 
287-92-3	Cyclopentane	70.1329	511.8	350	239000	680	20	24960.29911	143.772445	103.095363	0.000255	0.0000089	0.117	0.0185	4.47	0.71	0.0151	0.00169
287-92-3	Cyclopentane	70.1329	511.8	370	406000	656	36.3	24076.62457	148.681748	112.913969	0.0002	0.0000097	0.111	0.0208	3.82	0.75	0.013	0.00185
287-92-3	Cyclopentane	70.1329	511.8	390	642000	635	52.1	23487.50821	155.695038	125.537891	0.00016	0.0000105	0.105	0.0232	3.38	0.81	0.0111	0.00207
287-92-3	Cyclopentane	70.1329	511.8	410	948000	607	69.2	22316.28878	166.214973	135.356497	0.000128	0.0000112	0.098	0.0257	3.1	0.84	0.0087	0.00235
287-92-3	Cyclopentane	70.1329	511.8	430	1309000	577	97.5	19966.83663	177.436237	147.980419	0.000109	0.0000119	0.091	0.0284	3.03	0.88	0.0066	0.00275
287-92-3	Cyclopentane	70.1329	511.8	450	1861000	547	117	18788.60391	191.462817	168.31896	0.000092	0.0000128	0.085	0.0313	2.95	0.98	0.0047	0.00338
287-92-3	Cyclopentane	70.1329	511.8	470	2742000	505	141	15562.49051	213.204016	197.073449	0.000076	0.0000139	0.079	0.0348	2.92	1.12	0.0029	0.00445
287-92-3	Cyclopentane	70.1329	511.8	490	3562000	455	176	11747.26075	265.102362	274.219639	0.000058	0.0000159	0.068	0.039	3.22	1.59	0.0013	0.00712
287-92-3	Cyclopentane	70.1329	511.8	511.8	4508000	272	272				0.000043	0.000043	0.0511	0.0511				
78-78-4	Isopentane, 2-Methyl Butane 	72.14878	460.4	301	101300	613	3.07	24667.667882	165.2207062	124.0959016	0.000201	0.0000074	0.103	0.0147	4.47	0.87	0.014	0.00173
78-78-4	Isopentane, 2-Methyl Butane 	72.14878	460.4	325	217000	586	6.3	23159.75838	175.3215354	134.1967308	0.000163	0.000008	0.095	0.0174	4.17	0.86	0.0115	0.00194
78-78-4	Isopentane, 2-Methyl Butane 	72.14878	460.4	340	328000	569	9.41	22315.617654	182.5364134	141.4116088	0.000146	0.0000085	0.091	0.0193	4.06	0.86	0.0099	0.00211
78-78-4	Isopentane, 2-Methyl Butane 	72.14878	460.4	355	476000	552	13.5	21146.807418	189.0298036	150.0694624	0.000126	0.000009	0.087	0.0215	3.79	0.87	0.0084	0.00232
78-78-4	Isopentane, 2-Methyl Butane 	72.14878	460.4	370	667000	532	18.9	19804.84011	195.5231938	158.727316	0.000111	0.0000095	0.084	0.0234	3.58	0.89	0.007	0.00259
78-78-4	Isopentane, 2-Methyl Butane 	72.14878	460.4	385	915000	511	26.2	18801.972068	202.016584	168.8281452	0.000097	0.0000099	0.08	0.025	3.4	0.93	0.0056	0.00295
78-78-4	Isopentane, 2-Methyl Butane 	72.14878	460.4	400	1222000	488	36	17120.905494	209.9529498	183.2579012	0.000084	0.0000105	0.075	0.0276	3.22	0.97	0.0043	0.00347
78-78-4	Isopentane, 2-Methyl Butane 	72.14878	460.4	415	1603000	461	49.3	15771.723308	220.053779	202.7380718	0.000071	0.0000112	0.07	0.0294	3.05	1.07	0.003	0.00426
78-78-4	Isopentane, 2-Methyl Butane 	72.14878	460.4	430	2070000	428	68.3	13419.67308	233.7620472	236.6479984	0.00006	0.0000122	0.063	0.0334	2.99	1.2	0.0019	0.00566
78-78-4	Isopentane, 2-Methyl Butane 	72.14878	460.4	460.4	3380000	236	236						0.0483	0.0483				
463-82-1	Neopentane, 2,2-Dimethylpropane 	72.14878	433.8	282.65	101300	603	3.28	22726.8657	154.3983892	119.045487	0.00028	0.00000689	0.09	0.0132	6.66	0.86	0.0129	0.0018
463-82-1	Neopentane, 2,2-Dimethylpropane 	72.14878	433.8	305	215000	575	6.38	21428.18766	163.7777306	129.867804	0.000211	0.00000744	0.084	0.015	5.7	0.89	0.0106	0.00201
463-82-1	Neopentane, 2,2-Dimethylpropane 	72.14878	433.8	320	362000	558	9.91	20490.25352	170.9926086	137.8041698	0.000169	0.00000788	0.08	0.0163	5.01	0.92	0.00911	0.0022
463-82-1	Neopentane, 2,2-Dimethylpropane 	72.14878	433.8	335	482000	543	14.5	19408.02182	178.9289744	146.4620234	0.00014	0.00000827	0.076	0.018	4.57	0.03	0.00767	0.00244
463-82-1	Neopentane, 2,2-Dimethylpropane 	72.14878	433.8	350	676000	519	20.7	18325.79012	189.7512914	155.8413648	0.000112	0.00000873	0.072	0.0198	4.09	0.95	0.00627	0.00275
463-82-1	Neopentane, 2,2-Dimethylpropane 	72.14878	433.8	365	945000	497	29	17027.11208	199.8521206	167.3851696	0.000094	0.00000925	0.067	0.0216	3.89	0.99	0.00493	0.00316
463-82-1	Neopentane, 2,2-Dimethylpropane 	72.14878	433.8	380	1280000	472	40.2	15800.58282	213.5603888	182.5364134	0.000082	0.00000987	0.063	0.0242	3.85	1.03	0.00365	0.00376
463-82-1	Neopentane, 2,2-Dimethylpropane 	72.14878	433.8	395	1700000	443	55.8	13780.41698	230.876096	205.624023	0.000069	0.0000103	0.058	0.0266	3.81	1.1	0.00245	0.00475
463-82-1	Neopentane, 2,2-Dimethylpropane 	72.14878	433.8	410	2200000	407	79.1	11399.50724	259.0141202	253.2422178	0.000061	0.0000118	0.054	0.0308	4.06	1.34	0.00134	0.00674
463-82-1	Neopentane, 2,2-Dimethylpropane 	72.14878	433.8	433.78	3196000	238	238				0.000036	0.000036	0.042	0.042				
1634-04-4	Methyl-tert-butylether	88.14818	503.4	331.2	101300	706	3.4	27713.787792	202.740814	156.9037604	0.000231	0.0000085	0.108	0.0154	4.9	0.98	0.0147	0.00156
1634-04-4	Methyl-tert-butylether	88.14818	503.4	340	133000	697	4.39	27176.083894	207.148223	161.3111694	0.000214	0.00000876	0.106	0.0162	4.76	0.99	0.0138	0.00162
1634-04-4	Methyl-tert-butylether	88.14818	503.4	360	234000	673	7.51	25853.861194	216.8445228	171.888951	0.000184	0.00000938	0.1	0.0182	4.53	1.01	0.0117	0.00176
1634-04-4	Methyl-tert-butylether	88.14818	503.4	380	386000	649	12.2	24425.860678	226.5408226	183.3482144	0.000151	0.00001	0.094	0.0203	4.12	1.02	0.0098	0.00196
1634-04-4	Methyl-tert-butylether	88.14818	503.4	400	602000	623	18.9	22839.193438	237.1186042	196.5704414	0.000129	0.0000107	0.089	0.0225	3.92	1.06	0.0079	0.00217
1634-04-4	Methyl-tert-butylether	88.14818	503.4	420	897000	591	28.5	21040.970566	249.4593494	210.6741502	0.000109	0.0000115	0.083	0.0249	3.73	1.1	0.0061	0.00255
1634-04-4	Methyl-tert-butylether	88.14818	503.4	440	1290000	556	42.3	18960.673518	265.3260218	230.0667498	0.000091	0.0000123	0.078	0.0276	3.52	1.16	0.0043	0.00322
1634-04-4	Methyl-tert-butylether	88.14818	503.4	460	1800000	517	62.7	16422.005934	288.2445486	260.037131	0.000074	0.0000133	0.071	0.0307	3.36	1.28	0.0027	0.00412
1634-04-4	Methyl-tert-butylether	88.14818	503.4	480	2440000	467	96.2	12984.226914	337.6075294	331.4371568	0.000059	0.0000149	0.062	0.0344	3.53	1.63	0.0013	0.00668
1634-04-4	Methyl-tert-butylether	88.14818	503.4	503.4	3411000	275	275				0.000044	0.000044	0.047	0.047				
110-54-3	n-Hexane 	86.17536	507.82	300	21870	653	0.768	31390.2366336	194.7563136	144.94695552	0.0002948	0.0000064	0.1178	0.0128	5.66	0.84	0.01773	0.001413
110-54-3	n-Hexane 	86.17536	507.82	325	57770	629.5	1.906	29921.8084992	204.32177856	155.89122624	0.0002352	0.0000069	0.109	0.0151	5.12	0.83	0.01505	0.00153
110-54-3	n-Hexane 	86.17536	507.82	341.86	101330	613	3.231	28862.7133248	211.30198272	163.81935936	0.0002037	0.0000073	0.1035	0.0168	4.83	0.82	0.0133	0.001631
110-54-3	n-Hexane 	86.17536	507.82	350	129920	604.8	4.086	28326.7025856	214.83517248	167.86960128	0.0001904	0.0000075	0.101	0.0177	4.7	0.82	0.01248	0.001689
110-54-3	n-Hexane 	86.17536	507.82	375	258200	578.6	7.87	26549.7666624	226.29649536	181.05443136	0.0001556	0.0000081	0.0936	0.0204	4.37	0.83	0.01001	0.001911
110-54-3	n-Hexane 	86.17536	507.82	400	466100	550.1	14.05	24522.0604416	239.05044864	196.048944	0.0001278	0.0000088	0.087	0.0232	4.08	0.87	0.00768	0.002238
110-54-3	n-Hexane 	86.17536	507.82	425	780300	518.2	23.81	22138.449984	254.04496128	214.1457696	0.000105	0.0000098	0.0811	0.0263	3.82	0.93	0.00549	0.00276
110-54-3	n-Hexane 	86.17536	507.82	450	1231300	481.1	39.36	19211.9347584	274.0376448	239.9983776	0.000086	0.0000112	0.076	0.0295	3.6	1.06	0.00348	0.00375
110-54-3	n-Hexane 	86.17536	507.82	475	1856700	433.6	66.1	15302.1586752	310.74834816	292.996224	0.0000699	0.0000132	0.0715	0.0329	3.52	1.37	0.0017	0.00634
110-54-3	n-Hexane 	86.17536	507.82	507.82	3034000	233.2	233.2				0.0000561	0.0000175	0.068	0.036			0.00027	
110-82-7	Cyclohexane	84.15948	553.64	353.89	101330	719.5	3.013	29959.9332852	180.85872252	133.47693528	0.0004	0.0000086	0.102	0.0165	8.43	0.83	0.018	0.001409
110-82-7	Cyclohexane	84.15948	553.64	360	121310	713.3	3.567	29588.7899784	183.4676664	136.59083604	0.00037	0.0000087	0.1	0.0174	8.07	0.81	0.0172	0.001437
110-82-7	Cyclohexane	84.15948	553.64	385	236500	687.2	6.7	27984.7102896	194.24007984	150.39299076	0.00028	0.0000094	0.0926	0.0201	6.98	0.84	0.013	0.001577
110-82-7	Cyclohexane	84.15948	553.64	410	420500	659.5	11.66	26208.9452616	205.26497172	165.96249456	0.00023	0.0000102	0.0865	0.0229	6.49	0.88	0.011	0.001773
110-82-7	Cyclohexane	84.15948	553.64	435	695100	629.5	19.23	24196.6920948	217.21561788	184.22510172	0.00019	0.0000107	0.0779	0.026	6.3	0.9	0.0081	0.002062
110-82-7	Cyclohexane	84.15948	553.64	460	1084500	596.1	30.6	21853.6921716	231.0177726	207.4531182	0.00016	0.0000116	0.0692	0.0304	6.35	0.94	0.0052	0.00252
110-82-7	Cyclohexane	84.15948	553.64	485	1614700	557.5	47.84	19036.0327812	248.60710392	240.35947488	0.000135	0.0000123	0.0606	0.0361	6.58	0.98	0.002	0.00332
110-82-7	Cyclohexane	84.15948	553.64	510	2315000	510.5	75.19	15504.7010004	274.94902116	295.31561532	0.000115	0.0000136	0.0565	0.0394	6.65	1.21	0.0015	0.00496
110-82-7	Cyclohexane	84.15948	553.64	535	3223200	444.4	126	10565.3811192	360.79169076	423.99546024	0.000095	0.0000177	0.0483	0.046	8.43	1.94	0.0005	0.01206
110-82-7	Cyclohexane	84.15948	553.64	553.64	4075000	273	273				0.000054	0.000054	0.0579	0.0579				
71-43-2	Benzene	78.11184	562.05	278.7	4790	896.5	0.16	34939.426032	132.0090096		0.000815						0.0308	
71-43-2	Benzene	78.11184	562.05	300	13810	872.2	0.44	33838.049088	136.69572		0.000587	0.00000783	0.1405		7.3		0.028	0.00117
71-43-2	Benzene	78.11184	562.05	325	38810	844.3	1.14	32353.924128	142.1635488		0.000428	0.00000849	0.1323		5.9		0.0247	0.00126
71-43-2	Benzene	78.11184	562.05	353.3	101500	812.9	2.79	30768.253776	149.9747328	100.7642736	0.000321	0.00000926	0.1229	0.0148	5.02	0.81	0.0211	0.00136
71-43-2	Benzene	78.11184	562.05	400	352300	759.2	9.02	27878.115696	164.034864	119.5111152	0.000205	0.0000107	0.119	0.0198	3.62	0.83	0.0155	0.00166
71-43-2	Benzene	78.11184	562.05	450	971600	694.3	24.4	24128.747376	179.657232	141.3824304	0.000138	0.0000125	0.106	0.0267	2.99	0.85	0.00988	0.00237
71-43-2	Benzene	78.11184	562.05	475	1481900	656	37.9	21847.881648	192.1551264	157.0047984	0.000116	0.0000137	0.1	0.031	2.85	0.89	0.00725	0.00303
71-43-2	Benzene	78.11184	562.05	500	2166400	610.9	57.9	19121.778432	207.7774944	181.2194688	0.0000976	0.000015	0.0935	0.0357	2.78	0.97	0.00479	0.00419
71-43-2	Benzene	78.11184	562.05	525	3060900	553.8	89.4	15606.745632	238.241112	213.2453232	0.0000807	0.0000168	0.0871	0.0411	2.83	1.12	0.00254	0.00668
71-43-2	Benzene	78.11184	562.05	550	4215500	465.5	151.1	10084.238544	332.7564384		0.0000596	0.0000191	0.0774	0.0502	3.28		0.00063	0.01648
108-95-2	Phenol	94.11124	694.2	455	101300	955	2.6	33033.04524	1204.623872	16469.467	0.0000289	0.000489	0.00255	0.00163	5.11	0.72	0.0245	0.00091
108-95-2	Phenol	94.11124	694.2	480	216000	932	5.36	24092.47744	1270.50174	15998.9108	0.0000316	0.000467	0.00261	0.00174	3.93	0.74	0.0209	0.00102
108-95-2	Phenol	94.11124	694.2	505	404000	905	9.88	20610.36156	1345.790732	15622.46584	0.0000348	0.000452	0.00266	0.00185	3.51	0.76	0.0182	0.0012
108-95-2	Phenol	94.11124	694.2	530	693000	877	16.9	15622.46584	1430.490848	15246.02088	0.0000384	0.000427	0.00276	0.00195	2.83	0.77	0.0146	0.00123
108-95-2	Phenol	94.11124	694.2	555	1100000	851	27.2	12893.23988	1524.602088	14775.46468	0.0000424	0.000402	0.00285	0.00206	2.59	0.79	0.0124	0.00163
108-95-2	Phenol	94.11124	694.2	580	1650000	809	41.9	10634.57012	1628.124452	14493.13096	0.0000468	0.000368	0.00301	0.00222	2.21	0.82	0.01002	0.00204
108-95-2	Phenol	94.11124	694.2	605	2360000	772	62.9	8479.422724	1750.469064	14022.57476	0.0000514	0.000339	0.0031	0.00244	1.87	0.88	0.0076	0.00263
108-95-2	Phenol	94.11124	694.2	635	3410000	713	101	7077.165248	1901.047048	13269.68484	0.0000562	0.000285	0.00343	0.00294	1.57	1.07	0.0053	0.00352
108-95-2	Phenol	94.11124	694.2	665	4720000	636	170	6145.463972	2202.203016	12234.4612	0.0000643	0.000188	0.00377	0.0051	1.89	1.86	0.0027	0.01039
108-95-2	Phenol	94.11124	694.2	693.15	6129000	436	436				0.0000453	0.0000453	0.092	0.092				
62-53-3	Aniline	93.12648	705	457.5	101300	875	2.56	43862.57208	220.7097576	162.0400752	0.000303	0.0000118	0.154	0.0235	4.66	0.87	0.0252	0.00117
62-53-3	Aniline	93.12648	705	500	276000	828	6.62	40696.27176	234.6787296	176.0090472	0.000213	0.0000131	0.146	0.0281	3.68	0.88	0.0199	0.00134
62-53-3	Aniline	93.12648	705	525	456000	800	10.7	38647.4892	243.0601128	185.3216952	0.000178	0.0000139	0.141	0.0309	3.29	0.89	0.0169	0.00148
62-53-3	Aniline	93.12648	705	550	716000	769	16.7	34643.05056	252.3727608	194.6343432	0.000152	0.0000147	0.136	0.0338	3.03	0.91	0.014	0.00165
62-53-3	Aniline	93.12648	705	575	1080000	736	25.3	33991.1652	264.4792032	204.878256	0.000132	0.0000156	0.131	0.0368	2.86	0.93	0.0112	0.00188
62-53-3	Aniline	93.12648	705	600	1560000	699	37.5	31197.3708	276.5856456	218.847228	0.000117	0.0000165	0.126	0.0401	2.76	0.97	0.0085	0.00221
62-53-3	Aniline	93.12648	705	625	2200000	658	55.1	27937.944	291.4858824	237.472524	0.000104	0.0000176	0.121	0.0436	2.69	1.03	0.0059	0.00272
62-53-3	Aniline	93.12648	705	650	3010000	608	81.7	23933.50536	312.9049728	270.066792	0.000094	0.000019	0.116	0.0478	2.72	1.5	0.0036	0.00365
62-53-3	Aniline	93.12648	705	675	4050000	541	128	18252.79008	357.6056832	367.849596	0.000086	0.0000211	0.111	0.0531	2.98	1.57	0.0015	0.00607
62-53-3	Aniline	93.12648	705	699	5300000	340	340				0.000071	0.000071	0.07	0.07				
142-82-5	n-Heptane	100.20194	540.2	371.53	101330	614.2	3.471	31752.9927666	256.31656252	203.20953432	0.000201	0.0000073	0.098	0.018	5.25	0.82	0.0125	0.001559
142-82-5	n-Heptane	100.20194	540.2	380	129100	606.1	4.369	31129.7366998	260.42484206	208.01922744	0.000186	0.0000077	0.0955	0.0184	5.06	0.87	0.0118	0.001617
142-82-5	n-Heptane	100.20194	540.2	400	218250	586	7.228	29568.5904746	270.64543994	219.74285442	0.000159	0.0000083	0.0888	0.0201	4.84	0.91	0.01	0.001785
142-82-5	n-Heptane	100.20194	540.2	420	348500	564.6	11.424	27852.1312424	281.5674514	232.4685008	0.000135	0.000009	0.0829	0.0226	4.58	0.92	0.0083	0.002013
142-82-5	n-Heptane	100.20194	540.2	440	530700	541.3	17.46	25928.2539944	293.5916842	246.69717628	0.000115	0.0000097	0.0761	0.0249	4.43	0.96	0.0066	0.00234
142-82-5	n-Heptane	100.20194	540.2	460	777000	515.3	26.08	23721.8072756	307.82035968	263.73150608	0.000097	0.0000107	0.0699	0.0277	4.26	1.02	0.0051	0.002841
142-82-5	n-Heptane	100.20194	540.2	480	1101100	485.3	38.6	21104.5326028	326.1573147	286.87815422	0.000082	0.0000121	0.0611	0.0299	4.37	1.16	0.0036	0.00371
142-82-5	n-Heptane	100.20194	540.2	500	1519100	448.2	57.74	17822.9190678	355.61668506	326.35771858	0.000067	0.000014	0.052	0.033	4.57	1.38	0.0022	0.00556
142-82-5	n-Heptane	100.20194	540.2	520	2052400	395.8	91.1	13216.635886	432.07076528	434.67601572	0.000054	0.0000176	0.0418	0.036	5.57	2.12	0.0008	0.01191
142-82-5	n-Heptane	100.20194	540.2	540.13	2736000	232	232				0.000041	0.000041						
111-65-9	n-Octane	114.22852	569.32	398.77	101330	612.2	3.696	34518.7164588	302.59134948	244.79171836	0.000203	0.0000074	0.098	0.0184	5.49	0.86	0.0119	0.001535
111-65-9	n-Octane	114.22852	569.32	415	155820	596.7	5.576	33202.8039084	311.38694552	254.95805664	0.000174	0.0000079	0.093	0.0203	5.1	0.87	0.0105	0.001652
111-65-9	n-Octane	114.22852	569.32	435	251550	576.6	8.869	31456.2498376	322.80979752	268.09433644	0.000149	0.0000085	0.088	0.0225	4.78	0.89	0.0089	0.00184
111-65-9	n-Octane	114.22852	569.32	455	386970	554.8	13.596	29530.3569904	335.03224916	282.25867292	0.000126	0.0000092	0.083	0.0243	4.45	0.94	0.0073	0.002098
111-65-9	n-Octane	114.22852	569.32	475	571700	531	20.29	27365.7265364	348.62544304	298.36489424	0.000107	0.00001	0.078	0.0267	4.19	0.98	0.0058	0.002475
111-65-9	n-Octane	114.22852	569.32	495	816300	504	29.79	24869.8333744	364.9601214	318.1264282	0.000091	0.0000111	0.073	0.0291	3.98	1.06	0.0044	0.003073
111-65-9	n-Octane	114.22852	569.32	515	1133000	472.3	43.61	21880.473006	387.2346828	346.22664412	0.000075	0.0000125	0.068	0.0316	3.74	1.2	0.0029	0.00416
111-65-9	n-Octane	114.22852	569.32	535	1536600	432	65.14	18049.2484452	426.30083664	399.79982	0.000061	0.0000147	0.062	0.0344	3.67	1.5	0.0018	0.00669
111-65-9	n-Octane	114.22852	569.32	555	2047600	370.7	105.7	12311.5498856	560.2908906	598.67167332	0.000048	0.0000194	0.056	0.0386	4.2	2.63	0.0006	0.01807
111-65-9	n-Octane	114.22852	569.32	569.32	2497000	234.9	234.9						0.0477	0.0477				
111-84-2	n-Nonane 	128.2551	594.63	423.97	101300	614	3.94	37835.2545	348.853872	287.291424	0.000213	0.0000074	0.095	0.0208	6.1	0.8	0.0113	0.0016
111-84-2	n-Nonane 	128.2551	594.63	435	134000	602	5.18	36809.2137	355.266627	294.98673	0.000177	0.0000076	0.092	0.022	5.33	0.79	0.0104	0.00168
111-84-2	n-Nonane 	128.2551	594.63	455	214000	581	8.22	35013.6423	368.092137	307.81224	0.000153	0.0000079	0.087	0.0241	5.04	0.79	0.00886	0.00184
111-84-2	n-Nonane 	128.2551	594.63	475	338000	560	12.6	33089.8158	380.917647	321.920301	0.000132	0.0000083	0.082	0.0264	4.78	0.79	0.00733	0.00207
111-84-2	n-Nonane 	128.2551	594.63	495	496000	535	18.7	30524.7138	397.59081	337.310913	0.000112	0.0000087	0.077	0.0287	4.51	0.8	0.00586	0.00235
111-84-2	n-Nonane 	128.2551	594.63	515	717000	510	27.3	28087.8669	414.263973	355.266627	0.000094	0.0000091	0.072	0.0312	4.22	0.81	0.00446	0.00277
111-84-2	n-Nonane 	128.2551	594.63	535	965000	479	39.6	25009.7445	433.502238	378.352545	0.000078	0.0000097	0.066	0.0338	3.99	0.85	0.00313	0.0039
111-84-2	n-Nonane 	128.2551	594.63	555	1320000	444	58	21546.8568	460.435809	416.829075	0.000063	0.0000106	0.06	0.0366	3.77	0.94	0.0019	0.00456
111-84-2	n-Nonane 	128.2551	594.63	575	1750000	394	89.8	16416.6528	513.0204	519.433155	0.00005	0.0000122	0.055	0.04	3.64	1.24	0.00181	0.00751
111-84-2	n-Nonane 	128.2551	594.63	594.63	2289000	234	234						0.049	0.049				
124-18-5	n-Decane 	142.28168	617.6	447.31	101300	621	4.13	39412.02536	396.9658872	331.5163144	0.000205	0.0000081	0.091	0.0218	6.29	0.87	0.01064	0.00161
124-18-5	n-Decane 	142.28168	617.6	460	141000	608	5.6	38416.0536	405.502788	340.0532152	0.00018	0.0000083	0.088	0.0231	5.83	0.86	0.00968	0.00166
124-18-5	n-Decane 	142.28168	617.6	480	227000	588	8.73	36424.11008	418.3081392	354.2813832	0.000149	0.0000087	0.083	0.0253	5.28	0.86	0.0082	0.00188
124-18-5	n-Decane 	142.28168	617.6	500	329000	564	13.2	34432.16656	435.3819408	368.5095512	0.000127	0.0000091	0.078	0.0275	4.98	0.86	0.00677	0.00209
124-18-5	n-Decane 	142.28168	617.6	520	479000	538	19.4	32155.65968	449.6101088	385.5833528	0.000108	0.0000096	0.073	0.0298	4.68	0.87	0.00539	0.00235
124-18-5	n-Decane 	142.28168	617.6	540	675000	513	28.1	29594.58944	468.1067272	405.502788	0.000091	0.0000101	0.068	0.0321	4.4	0.9	0.00407	0.00281
124-18-5	n-Decane 	142.28168	617.6	560	927000	479	40.7	26464.39248	489.4489792	431.1134904	0.000075	0.0000107	0.063	0.0347	4.1	0.93	0.00283	0.00353
124-18-5	n-Decane 	142.28168	617.6	580	1250000	445	59.6	22195.94208	519.328132	473.7979944	0.000061	0.0000116	0.058	0.0375	3.84	1.03	0.00168	0.00473
124-18-5	n-Decane 	142.28168	617.6	600	1650000	392	93.1	16504.67488	577.6636208	597.583056	0.000048	0.0000133	0.054	0.0409	3.61	1.37	0.00067	0.00808
124-18-5	n-Decane 	142.28168	617.6	617.6	2096000	235.9	235.9						0.049	0.049				
100-41-4	Ethylbenzene	106.165	617.15	409.3	101300	751	3.26	36265.964	210.2067	177.29555	0.00023	0.000009	0.099	0.0169	4.6	0.87	0.0166	0.00135
100-41-4	Ethylbenzene	106.165	617.15	433	189000	727	5.76	34673.489	216.5766	187.91205	0.000197	0.0000096	0.095	0.0194	4.31	0.88	0.0145	0.00147
100-41-4	Ethylbenzene	106.165	617.15	453	297000	705	8.88	33335.81	224.00815	197.4669	0.000176	0.0000103	0.09	0.0215	4.13	0.89	0.0125	0.0016
100-41-4	Ethylbenzene	106.165	617.15	473	447000	682	13.2	31605.3205	232.50135	207.02175	0.000158	0.000011	0.085	0.0236	4.07	0.91	0.0105	0.00175
100-41-4	Ethylbenzene	106.165	617.15	493	645000	657	29	28887.4965	242.0562	217.63825	0.000142	0.0000117	0.08	0.0259	4.05	0.93	0.0088	0.00195