CASRN	Chemical Name	MW	Tc	T s, K 	Saturation pressure, Pa	rho(l), kg/m^3	rho(g), kg/m^3	Hvap, J/mol	cp(l), J/(mol*K)	cp(g), J/(mol*K) 	mu(l) Pa*s	mu(g) Pa*s	k(l), W/(m K)	k(g) , W/(m K) 	Pr(l)	Pr(g)	Surface tension, N/m 	Beta thermal expansion coefficient, /K 
71-23-8	1-Propanol 	60.09502	536.8	493.2	2426000	548.5	55.6	21393.82712	407.4442356	178.4822094	0.0000906	0.0000142	0.1118	0.038	5.5	1.11	0.00635	0.00436
71-23-8	1-Propanol 	60.09502	536.8	513.2	3402000	492	90.4	15865.08528	468.1402058	236.7743788	0.00007	0.0000157	0.1006	0.0439	5.42	1.41	0.00404	0.00617
71-23-8	1-Propanol 	60.09502	536.8	523.2	3998000	452.5	118	12559.85918			0.0000614	0.000017	0.0941	0.0475			0.0026	0.0084
71-23-8	1-Propanol 	60.09502	536.8	533.1	4689000	390.5	161	8293.11276			0.0000539	0.0000193	0.0893	0.0535		0.96		
75-56-9	Propylene oxide 	58.07914	485	307.5	101300	812	2.38	27703.74978	119.6430284	76.6644648	0.000278	0.0000091	0.147	0.0121	3.9	0.9	0.0199	0.00159
75-56-9	Propylene oxide 	58.07914	485	320	159000	796	3.57	27239.11666	121.966194	80.7300046	0.000251	0.0000095	0.143	0.0133	3.69	0.99	0.0182	0.00168
75-56-9	Propylene oxide 	58.07914	485	340	297000	769	6.39	25554.8216	126.6125252	86.5379186	0.000217	0.0000102	0.135	0.0155	3.49	0.98	0.0155	0.0018
75-56-9	Propylene oxide 	58.07914	485	360	496000	740	10.7	24335.15966	133.0012306	94.0882068	0.000191	0.0000108	0.128	0.0178	3.41	0.98	0.0129	0.00204
75-56-9	Propylene oxide 	58.07914	485	380	814000	709	17.2	2265.08646	140.5515188	102.2192864	0.000171	0.0000115	0.12	0.0205	3.44	0.99	0.0104	0.00231
75-56-9	Propylene oxide 	58.07914	485	400	1230000	675	26.6	21373.12352	151.005764	112.6735316	0.000155	0.0000123	0.113	0.0235	3.57	1.02	0.008	0.00272
75-56-9	Propylene oxide 	58.07914	485	420	1790000	636	40.5	19456.5119	163.2023834	127.1933166	0.000143	0.0000131	0.105	0.0269	3.84	1.07	0.0057	0.00334
75-56-9	Propylene oxide 	58.07914	485	440	2480000	591	61.1	16029.84264	178.3029598	152.7481382	0.000133	0.0000141	0.096	0.0313	4.23	1.18	0.0035	0.00376
75-56-9	Propylene oxide 	58.07914	485	460	3450000	531	95.9	11673.90714	196.3074932	222.4431062	0.000125	0.0000155	0.088	0.0474	4.79	1.25	0.0016	0.01269
75-56-9	Propylene oxide 	58.07914	485	482.2	4920000	312	312				0.000048	0.000048	0.071	0.071				
67-63-0	Isopropylalcohol	60.09502	508.3	355.65	101300	732.3	2.06	40732.404556	202.5202174	97.9548826	0.000502	0.00000908	0.1311	0.0198	12.9	0.75	0.0186	0.00141
67-63-0	Isopropylalcohol	60.09502	508.3	373	200000	712.7	4.15	37733.663058	213.337321	102.7624842	0.000376	0.0000098	0.1275	0.0222	10.5	0.75	0.0172	0.00176
67-63-0	Isopropylalcohol	60.09502	508.3	390	380000	683	7.73	36958.4373	222.9525242	108.171036	0.000295	0.0000103	0.1243	0.0246	8.81	0.75	0.0142	0.00212
67-63-0	Isopropylalcohol	60.09502	508.3	408	580000	660	14.3	34716.893054	233.1686776	116.5843388	0.00023	0.0000109	0.1228	0.0271	7.27	0.78	0.01184	0.00239
67-63-0	Isopropylalcohol	60.09502	508.3	425	925000	630.1	21	32361.16827	242.7838808	129.204293	0.000184	0.0000114	0.1201	0.0293	6.19	0.84	0.0094	0.00275
67-63-0	Isopropylalcohol	60.09502	508.3	443	1425000	597.4	32.78	29512.664322	252.399084	142.4251974	0.000147	0.0000119	0.1173	0.0318	5.27	0.89	0.0069	0.00322
67-63-0	Isopropylalcohol	60.09502	508.3	459	2025000	566	46.4	26537.960832	260.8123868	170.0689066	0.000122	0.0000125	0.1158	0.0349	4.57	1.01	0.00497	0.00394
67-63-0	Isopropylalcohol	60.09502	508.3	478	3039000	514.8	72.3	22084.91985	269.8266398	238.5772294	0.0000935	0.0000137	0.1132	0.0389	3.71	1.4	0.0026	0.00546
67-63-0	Isopropylalcohol	60.09502	508.3	498	4052000	460.5	108.4	17097.03319			0.0000725	0.0000152	0.1107	0.0423		1.05	0.02346	
67-63-0	Isopropylalcohol	60.09502	508.3	508	5369000	288	252	4957.83915				0.0000282	0.1077	0.0471			0	
67-64-1	Acetone	58.07914	508.1	329.23	101330	748.95	2.268	29122.6231702	129.45840306	91.01001238	0.000235	0.0000094	0.142	0.0127	3.69	1.16	0.0184	0.001587
67-64-1	Acetone	58.07914	508.1	340	144500	736.03	3.173	28419.2847848	131.49117296	94.9593939	0.000213	0.0000098	0.137	0.0141	3.52	1.14	0.017	0.001659
67-64-1	Acetone	58.07914	508.1	360	261880	711.08	5.597	27036.4204614	135.67287104	102.8000778	0.000188	0.0000104	0.129	0.0161	3.4	1.14	0.0145	0.001824
67-64-1	Acetone	58.07914	508.1	380	442400	684.55	9.313	25528.1051956	140.5515188	111.57002794	0.000165	0.0000111	0.121	0.0185	3.3	1.15	0.0121	0.002043
67-64-1	Acetone	58.07914	508.1	400	705590	655.92	14.83	23855.4259636	146.30135366	121.90811486	0.000141	0.0000118	0.112	0.0212	3.17	1.17	0.0096	0.002346
67-64-1	Acetone	58.07914	508.1	420	1073310	624.5	22.895	21962.0459996	153.50316702	134.85976308	0.000119	0.0000126	0.104	0.0242	3.02	1.21	0.0071	0.002789
67-64-1	Acetone	58.07914	508.1	440	1570250	589.14	34.72	19763.1697592	163.2023834	152.98045476	0.000099	0.0000135	0.096	0.0272	2.9	1.31	0.0046	0.00349
67-64-1	Acetone	58.07914	508.1	460	2224940	547.85	52.555	17108.3722698	178.12872238	183.29776584	0.00008	0.0000144	0.087	0.031	2.82	1.47	0.0031	0.00476
67-64-1	Acetone	58.07914	508.1	480	3072500	496.13	81.608	13677.63747	208.91066658	251.94730932	0.000064	0.0000158	0.077	0.036	2.99	1.9	0.0016	0.00784
67-64-1	Acetone	58.07914	508.1	508.1	4700000	272.97	272.97				0.000049	0.000049	0.058	0.058				
79-20-9	Methyl acetate 	74.07854	506.8	331	101300	875	2.83	29772.165226	142.2307968	88.1534626	0.00026	0.0000089	0.157	0.0142	3.18	0.75	0.0194	0.00164
79-20-9	Methyl acetate 	74.07854	506.8	350	200000	850	5.16	28535.053608	147.4162946	92.598175	0.000225	0.0000095	0.146	0.0157	3.07	0.76	0.017	0.00179
79-20-9	Methyl acetate 	74.07854	506.8	370	359000	820	8.87	27134.969202	154.0833632	100.006029	0.000192	0.0000101	0.133	0.0175	3	0.78	0.0147	0.00198
79-20-9	Methyl acetate 	74.07854	506.8	390	537000	780	14.5	25742.29265	161.4912172	107.413883	0.000168	0.0000107	0.122	0.0195	3	0.8	0.012	0.00219
79-20-9	Methyl acetate 	74.07854	506.8	410	854000	750	22.7	24194.051164	171.8622128	116.3033078	0.000145	0.0000114	0.11	0.0217	3.04	0.82	0.0094	0.00253
79-20-9	Methyl acetate 	74.07854	506.8	430	1344000	715	34.6	22023.549942	182.2332084	127.4150888	0.000121	0.0000121	0.098	0.0241	3.05	0.86	0.0069	0.003
79-20-9	Methyl acetate 	74.07854	506.8	450	1930000	680	52.2	19541.918852	196.308131	144.453153	0.000099	0.0000131	0.086	0.027	3.06	0.95	0.0046	0.00378
79-20-9	Methyl acetate 	74.07854	506.8	470	2688000	620	79.3	16438.028026	217.7909076	176.3069252	0.00008	0.0000141	0.074	0.0304	3.18	1.1	0.0024	0.00512
79-20-9	Methyl acetate 	74.07854	506.8	490	3723000	540	127.8	10852.50611	265.2011732	285.9431644	0.000062	0.0000161	0.061	0.0353	3.64	1.76	0.0011	0.00889
79-20-9	Methyl acetate 	74.07854	506.8	506.8	4687000	325	325				0.000056	0.000056	0.0503	0.0503				
106-97-8	n-Butane 	58.1222	425.13	134.9	0.666	735	0.000034	28824.542646	114.6751006	64.2831532	0.0023043	0.00000332	0.17656	0.00485	25.75	0.757	0.03349	0.001271
106-97-8	n-Butane 	58.1222	425.13	225	10570	649.9	0.331	24685.079562	123.6259194	82.0685464	0.0003498	0.0000056	0.1375	0.01025	5.41	0.771	0.02097	0.001506
106-97-8	n-Butane 	58.1222	425.13	250	39150	625	1.118	23537.747334	128.6244286	88.5201106	0.0002593	0.00000621	0.12577	0.0122	4.56	0.775	0.01772	0.001635
106-97-8	n-Butane 	58.1222	425.13	272.66	101330	601.3	2.71	22418.313762	134.262282	95.3785302	0.0002035	0.00000676	0.11553	0.01414	4.07	0.784	0.01488	0.001795
106-97-8	n-Butane 	58.1222	425.13	300	257600	570.7	6.52	20899.580676	142.4575122	105.2593042	0.0001556	0.00000744	0.10393	0.01678	3.67	0.802	0.0116	0.002073
106-97-8	n-Butane 	58.1222	425.13	325	520100	539.9	12.83	19270.996632	151.8151864	116.3606444	0.0001233	0.00000812	0.09424	0.0196	3.42	0.83	0.00876	0.002467
106-97-8	n-Butane 	58.1222	425.13	350	944200	505.2	23.39	17302.97894	163.904604	130.77495	0.0000976	0.00000896	0.0855	0.02306	3.22	0.875	0.0061	0.00313
106-97-8	n-Butane 	58.1222	425.13	375	1581600	463.7	41.01	14799.655786	182.0387304	153.2682414	0.0000759	0.00001011	0.07768	0.02766	3.06	0.964	0.00366	0.00445
106-97-8	n-Butane 	58.1222	425.13	400	2495400	408.5	73.08	11275.125578	223.0730036	210.5767306	0.000056	0.00001203	0.0706	0.03503	3.04	1.24	0.00153	0.00852
106-97-8	n-Butane 	58.1222	425.13	425.13	3796000	228	228											
75-28-5	Isobutane	58.1222	407.81	113.73	0.023	740.3	0.000001	27939.34154	98.1683958	51.147536	0.0087672	0.00000285	0.15792	0.00227	93.76	1.1	0.03323	0.001276
75-28-5	Isobutane	58.1222	407.81	225	18620	632.5	0.586	22974.543216	119.7898542	78.6393366	0.0003675	0.0000057	0.11844	0.01003	6.39	0.769	0.01892	0.001623
75-28-5	Isobutane	58.1222	407.81	250	63350	606.3	1.825	21795.243778	126.0089296	86.0789782	0.000262	0.0000063	0.10794	0.01217	5.26	0.767	0.01583	0.001784
75-28-5	Isobutane	58.1222	407.81	261.4	101330	593.8	2.83	21220.41522	129.1475284	89.9150434	0.0002278	0.00000658	0.10329	0.0132	4.9	0.771	0.01444	0.001877
75-28-5	Isobutane	58.1222	407.81	275	167510	578.4	4.53	20492.725276	133.2742046	94.7973082	0.0001944	0.00000691	0.09791	0.01448	4.55	0.778	0.01281	0.00201
75-28-5	Isobutane	58.1222	407.81	300	370000	548.3	9.61	18998.403514	141.9344124	105.201182	0.0001482	0.00000755	0.0886	0.01702	4.09	0.802	0.00989	0.002349
75-28-5	Isobutane	58.1222	407.81	325	716600	514.7	18.42	17220.445416	152.9195082	118.3367992	0.0001147	0.00000828	0.08017	0.02002	3.76	0.842	0.00711	0.0029
75-28-5	Isobutane	58.1222	407.81	350	1258700	475.5	33.23	15004.827152	168.4381356	136.877781	0.0000886	0.00000924	0.07268	0.02393	3.53	0.91	0.00452	0.00395
75-28-5	Isobutane	58.1222	407.81	375	2055700	425.3	59.24	12001.071856	197.8479688	176.1683882	0.0000662	0.00001081	0.06612	0.03004	3.41	1.09	0.0022	0.00669
75-28-5	Isobutane	58.1222	407.81	407.81	3629000	225.5	225.5											
590-19-2	1,2-Butadiene	54.09044	443.7	284	101300	651	2.32	23475.25096	118.998968	80.0538512	0.0002	0.0000074	0.126	0.0125	3.62	0.88	0.018	0.00171
590-19-2	1,2-Butadiene	54.09044	443.7	300	189000	643	4.04	22880.25612	121.1625856	84.3810864	0.000185	0.00000778	0.119	0.0141	3.48	0.86	0.0157	0.00187
590-19-2	1,2-Butadiene	54.09044	443.7	315	265000	625	6.43	21960.71864	124.408012	89.249226	0.00017	0.00000827	0.113	0.0158	3.46	0.86	0.0139	0.00202
590-19-2	1,2-Butadiene	54.09044	443.7	330	445000	605	9.8	20933.00028	130.3579604	94.65827	0.00015	0.00000876	0.107	0.0175	3.38	0.88	0.0121	0.00218
590-19-2	1,2-Butadiene	54.09044	443.7	345	661000	585	14.4	19905.28192	134.6851956	101.1491228	0.000134	0.00000926	0.102	0.0193	3.27	0.9	0.0104	0.00239
590-19-2	1,2-Butadiene	54.09044	443.7	360	945000	563	20.7	18715.29224	140.635144	108.7217844	0.000116	0.00000977	0.098	0.0212	3.08	0.93	0.00865	0.00326
590-19-2	1,2-Butadiene	54.09044	443.7	375	1310000	537	29.2	17417.12168	147.1259968	117.9171592	0.0001	0.0000104	0.093	0.0233	2.92	0.97	0.007	0.00339
590-19-2	1,2-Butadiene	54.09044	443.7	390	1770000	507	40.7	15848.49892	155.2395628	131.4397692	0.000085	0.000011	0.088	0.0256	2.77	1.04	0.0053	0.00378
590-19-2	1,2-Butadiene	54.09044	443.7	400	2140000	485	50.8	14658.50924	162.8122244	144.9623792	0.000076	0.0000115	0.082	0.0273	2.79	1.13	0.0041	0.00428
590-19-2	1,2-Butadiene	54.09044	443.7	443.7	4500000	246.8	246.8				0.000043	0.000043	0.049	0.049				
106-99-0	1,3-Butadiene	54.09044	425.15	268.69	101300	650	2.53	22469.168776	115.7535416	76.8084248	0.0002	0.00000757	0.126	0.00954	3.4	1.13	0.0166	0.00179
106-99-0	1,3-Butadiene	54.09044	425.15	285	184000	631	4.41	21603.721736	120.0807768	82.7583732	0.000164	0.00000843	0.117	0.0123	3.11	1.05	0.0145	0.00192
106-99-0	1,3-Butadiene	54.09044	425.15	300	298000	612	6.97	20738.274696	123.8671076	88.1674172	0.000138	0.00000891	0.11	0.0147	2.87	0.99	0.0127	0.00207
106-99-0	1,3-Butadiene	54.09044	425.15	315	458000	593	10.5	19797.10104	128.1943428	94.1173656	0.000117	0.00000941	0.103	0.0173	2.169	0.95	0.0109	0.00224
106-99-0	1,3-Butadiene	54.09044	425.15	330	676000	572	15.5	18753.155548	133.6033868	101.1491228	0.0000995	0.00000994	0.0956	0.0199	2.57	0.93	0.00912	0.0025
106-99-0	1,3-Butadiene	54.09044	425.15	350	1080000	541	26.7	17162.896612	142.2578572	111.9672108	0.0000843	0.0000107	0.0866	0.0237	2.56	0.93	0.00686	0.00297
106-99-0	1,3-Butadiene	54.09044	425.15	370	1630000	507	38.7	15237.276948	151.9941364	127.112534	0.0000713	0.0000116	0.078	0.0275	2.57	1.02	0.00473	0.00381
106-99-0	1,3-Butadiene	54.09044	425.15	390	2370000	464	53.5	12884.342808	163.8940332	157.9440848	0.0000617	0.0000126	0.0698	0.0316	2.68	1.16	0.00275	0.00545
106-99-0	1,3-Butadiene	54.09044	425.15	410	3350000	405	101	9406.327516	177.4166432	245.5705976	0.0000534	0.000015	0.062	0.0378	2.83	1.3	0.001	0.01246
106-99-0	1,3-Butadiene	54.09044	425.15	425.15	4330000	245	245						0.0537	0.0537				
71-36-3	n-Butanol	74.1216	563	390.65	101300	712	2.3	43828.10208	237.18912	138.607392	0.0004229	0.00000929	0.1229	0.0217	11.01	0.81	0.0171	0.00169
71-36-3	n-Butanol	74.1216	563	410.2	182000	688	4.1	41878.704	262.390464	144.53712	0.0003173	0.0000103	0.1179	0.0242	9.53	0.83	0.0156	0.00186
71-36-3	n-Butanol	74.1216	563	429.2	327000	664	7.9	39825.53568	292.78032	150.466848	0.000245	0.0000107	0.1131	0.0267	8.58	0.81	0.0139	0.00204
71-36-3	n-Butanol	74.1216	563	446.5	482000	640	12.5	37779.77952	327.617472	158.620224	0.0001964	0.0000114	0.1087	0.0282	7.97	0.86	0.0123	0.00211
71-36-3	n-Butanol	74.1216	563	469.5	759000	606	23.8	34748.20608	381.72624	166.032384	0.000149	0.0000121	0.1029	0.0313	7.46	0.87	0.0102	0.00254
71-36-3	n-Butanol	74.1216	563	485.2	1190000	581	27.8	32405.96352	425.457984	175.668192	0.000124	0.0000127	0.099	0.0331	7.22	0.91	0.0075	0.00284
71-36-3	n-Butanol	74.1216	563	508.3	1830000	538	48.2	28351.512	501.062016	199.387104	0.0000968	0.0000139	0.0932	0.0369	7.02	1.01	0.00644	0.0037
71-36-3	n-Butanol	74.1216	563	530.2	2530000	487	74	23355.71616	585.56064	226.07088	0.0000769	0.0000154	0.0877	0.0402	6.93	1.17	0.00423	0.00578
71-36-3	n-Butanol	74.1216	563	545.5	3210000	440	102.3	18411.80544	294.262752	4877.20128	0.0000171	0.000074	0.0436		1.56	2.11	0.00908	
71-36-3	n-Butanol	74.1216	563	558.9	4030000	364	240.2	10599.3888			0.0000576	0.0000283	0.0628	0.0515			0.00096	
75-65-0	Tert.-butanol 	74.1216	506.2	355.6	101300	710	2.64	37550.00256	214.95264	134.160096	0.000531	0.0000094	0.109	0.0179	14.1	0.95	0.0145	0.00184
75-65-0	Tert.-butanol 	74.1216	506.2	375	207000	688	5.12	36000.86112	226.812096	142.313472	0.000312	0.00001	0.104	0.0198	9.18	0.97	0.013	0.00203
75-65-0	Tert.-butanol 	74.1216	506.2	390	322000	670	8.11	33829.09824	236.447904	149.725632	0.000235	0.0000104	0.1	0.0214	7.5	0.98	0.0115	0.00219
75-65-0	Tert.-butanol 	74.1216	506.2	405	483000	647	12.4	32272.54464	247.566144	157.879008	0.00018	0.000011	0.096	0.0231	6.26	1.01	0.01	0.00298
75-65-0	Tert.-butanol 	74.1216	506.2	420	779000	621	18.5	30100.78176	257.201952	167.514816	0.000142	0.0000115	0.092	0.0249	5.36	1.04	0.0086	0.00304
75-65-0	Tert.-butanol 	74.1216	506.2	435	1010000	596	27.1	27929.01888	268.320192	179.374272	0.000118	0.0000121	0.088	0.0269	4.85	1.09	0.0071	0.00323
75-65-0	Tert.-butanol 	74.1216	506.2	450	1516000	567	39.1	25134.63456	280.920864	195.681024	0.000098	0.0000128	0.083	0.0291	4.47	1.16	0.0055	0.00365
75-65-0	Tert.-butanol 	74.1216	506.2	465	1896000	533	56.4	22036.35168	297.227616	222.3648	0.000084	0.0000136	0.077	0.0316	4.37	1.29	0.0038	0.00449
75-65-0	Tert.-butanol 	74.1216	506.2	480	2619000	487	82.3	17381.5152	324.652608	276.473568	0.000066	0.0000148	0.07	0.0345	4.13	1.59	0.0022	0.00626
75-65-0	Tert.-butanol 	74.1216	506.2	506.2	3970000	270	270				0.000065	0.000065	0.053	0.053				
60-29-7	Ethyl ether 	74.1216	466.7	307.75	101300	696.2	3.16	25935.14784	175.668192	103.77024	0.00021	0.00000786	0.126	0.0158	3.95	0.7	0.01525	0.00193
60-29-7	Ethyl ether 	74.1216	466.7	323	170000	676.4	5.08	24978.9792	180.115488	145.278336	0.000177	0.00000828	0.12	0.0174	3.58	0.93	0.0135	0.00175
60-29-7	Ethyl ether 	74.1216	466.7	343	307000	653.2	8.92	23585.49312	186.045216	151.94928	0.000148	0.00000886	0.112	0.0195	3.32	0.93	0.0113	0.00188
60-29-7	Ethyl ether 	74.1216	466.7	363	511000	625	14.77	22036.35168	193.457376	158.620224	0.000127	0.00000945	0.104	0.0224	3.19	0.9	0.0091	0.00223
60-29-7	Ethyl ether 	74.1216	466.7	383	811000	594.2	23.49	20324.14272	201.610752	167.514816	0.000109	0.0000101	0.0956	0.0242	3.1	0.94	0.007	0.00279
60-29-7	Ethyl ether 	74.1216	466.7	403	1220000	558	36.38	18463.69056	211.987776	180.115488	0.000095	0.0000109	0.0875	0.027	3.11	0.98	0.0049	0.00351
60-29-7	Ethyl ether 	74.1216	466.7	423	1770000	517.9	55.51	15980.61696	223.106016	203.8344	0.000084	0.0000117	0.0799	0.0302	3.16	1.07	0.0031	0.00454
60-29-7	Ethyl ether 	74.1216	466.7	443	2490000	465.8	87.31	12259.71264	237.18912	254.978304	0.000077	0.0000131	0.0714	0.0342	3.45	1.32	0.0015	0.0059
60-29-7	Ethyl ether 	74.1216	466.7	458	3150000	401.8	132	7990.30848	277.956	307.60464	0.00007	0.000015	0.0653	0.0386	4.02	1.61	0.0005	0.01489
60-29-7	Ethyl ether 	74.1216	466.7	463	3490000	366.3	162	6048.32256	301.674912	333.5472	0.000067	0.0000164	0.0633	0.0415	4.31	1.78	0.0002	0.02404
141-78-6	Ethylacetate	88.10512	523.3	350.25	101300	830	3.2	32096.695216	185.020752	128.6334752	0.000255	0.0000089	0.125	0.0158	4.28	0.82	0.0174	0.00165
141-78-6	Ethylacetate	88.10512	523.3	370	193000	800	5.63	30616.5292	191.1881104	135.6818848	0.000221	0.0000095	0.118	0.0174	4.08	0.84	0.015	0.00179
141-78-6	Ethylacetate	88.10512	523.3	390	310000	770	9.45	29330.194448	200.8796736	143.6113456	0.000193	0.0000101	0.111	0.0193	3.96	0.85	0.0126	0.00199
141-78-6	Ethylacetate	88.10512	523.3	410	510000	740	15.1	27850.028432	207.9280832	152.4218576	0.000158	0.0000107	0.104	0.0215	3.59	0.86	0.01	0.00223
141-78-6	Ethylacetate	88.10512	523.3	430	792000	705	23.4	26008.631424	220.2628	162.994472	0.000134	0.0000114	0.098	0.0235	3.42	0.9	0.0078	0.00257
141-78-6	Ethylacetate	88.10512	523.3	450	1172000	670	35.5	23603.361648	232.5975168	176.21024	0.000111	0.0000122	0.092	0.0258	3.19	0.95	0.0058	0.00306
141-78-6	Ethylacetate	88.10512	523.3	470	1655000	625	54.2	21021.881632	248.4564384	198.23652	0.00009	0.000013	0.085	0.0285	2.99	1.03	0.0039	0.00389
141-78-6	Ethylacetate	88.10512	523.3	490	2275000	570	81.3	16969.046112	272.2448208	236.1217216	0.000072	0.0000143	0.077	0.032	2.89	1.2	0.0023	0.00536
141-78-6	Ethylacetate	88.10512	523.3	510	3172000	475	134.5	10325.920064	331.2752512	398.2351424	0.000056	0.0000164	0.066	0.0365	3.19	2.03	0.00074	0.00946
141-78-6	Ethylacetate	88.10512	523.3	523.2	3832000	307.7	307.7				0.000057	0.000057	0.0482	0.0482				
109-66-0	n-Pentane 	72.14878	469.7	300	73170	619	2.194	26324.2038708	167.67376472	123.66300892	0.0002186	0.0000067	0.1066	0.0149	4.77	0.77	0.01526	0.001609
109-66-0	n-Pentane 	72.14878	469.7	309.21	101330	609.7	2.975	25798.9607524	170.84831104	127.27044792	0.0002013	0.000007	0.1027	0.0157	4.64	0.78	0.01426	0.001672
109-66-0	n-Pentane 	72.14878	469.7	320	144350	598.6	4.15	25157.5580982	174.74434516	131.74367228	0.0001832	0.0000072	0.0989	0.0167	4.49	0.79	0.01311	0.001758
109-66-0	n-Pentane 	72.14878	469.7	340	260160	577	7.261	23875.4742776	182.68071096	140.76226978	0.0001545	0.0000078	0.0924	0.0187	4.23	0.81	0.011	0.001957
109-66-0	n-Pentane 	72.14878	469.7	360	436100	553.9	11.98	22438.9920678	191.62715968	150.93524776	0.0001307	0.0000084	0.0868	0.021	4	0.83	0.00896	0.002234
109-66-0	n-Pentane 	72.14878	469.7	380	689200	528.4	18.93	20793.9998838	202.08873278	162.91194524	0.0001107	0.000009	0.0815	0.0236	3.8	0.86	0.00699	0.002641
109-66-0	n-Pentane 	72.14878	469.7	400	1038400	499.7	29.12	18860.4125798	215.07551318	178.27963538	0.0000937	0.0000097	0.0766	0.0264	3.65	0.91	0.00512	0.00329
109-66-0	n-Pentane 	72.14878	469.7	420	1505000	466	44.32	16499.7044982	233.25700574	201.22294742	0.0000789	0.0000107	0.0716	0.0298	3.56	1	0.00337	0.00446
109-66-0	n-Pentane 	72.14878	469.7	440	2114700	423.5	68.6	13413.1796898	266.15684942	248.26395198	0.0000661	0.0000123	0.0665	0.0349	3.67	1.22	0.00177	0.00723
109-66-0	n-Pentane 	72.14878	469.7	469.7	3370000	232	232				0.0000549	0.0000142	0.0615	0.0458			0.00044	
287-92-3	Cyclopentane	70.1329	511.8	322.4	101300	706	10.8	27604.30944	134.655168	93.978086	0.00032	0.0000079	0.125	0.0163	4.92	0.65	0.0186	0.00149