CASRN	Compound	Hf
120-12-7	Anthracene	230100
103-30-0	trans-1,2-Diphenylethene	241000
645-49-8	cis-1,2-Diphenylethene	245190
208-96-8	Acenaphthalene (Acenaphthylene)	259590
218-01-9	Chrysene (1,2-benzophenanthrene)	262900
84-15-1	1,2-Diphenylbenzene (o-terphenyl)	276570
92-06-8	1,3-Diphenylbenzene (m-terphenyl)	276570
92-94-4	1,4-Diphenylbenzene (p-terphenyl)	276570
206-44-0	Fluoranthene	288900
260-94-6	Acridine	291040
689-97-4	Vinylacetylene	304630
1127-76-0	1-Ethylnaphthalene	323890
4669-01-6	n-Pentadecylcyclopentane	395010
501-65-5	Diphenylacetylene	430110
75-71-8	Dichlorodifluoromethane	491610
2189-60-8	n-Octylbenzene	538810