CAS	name	Hf(g)	S0(g)
1530-04-7	1,1-diphenylhexane	45000	
26533-34-6	2-methyl-3-octanol	-391880	538.41
540-18-1	pentyl butanoate	-545800	561.89
594-59-2	2-iodo-2,3-dimethylbutane	-99050	406.46
118-74-1	hexachlorobenzene	-33900	436.7
13446-56-5	molybdenum (II) bromide	167360	321.06
61868-26-6	2,4-dimethyl-5-ethylheptane	-277900	549.63
2851-83-4	ethyl dodecyl sulfide	-290080	766.83
61868-43-7	2,2,3,6-tetramethylheptane	-289900	527.83
61868-61-9	3,3,5,5-tetramethylheptane	-272500	526.15
27370-94-1	cis-1-iodo-1-nonene	-35000	555.61
38514-04-4	5-methyl-1-octanol	-386600	547.94
52897-12-8	2,3,4,4-tetramethylhexane	-250960	502.02
13279-87-3	1,1,3-trichlorobutane	-183670	393.03
20281-00-9	cesium oxide	-92050	318.25
13283-01-7	tungsten (VI) chloride	-493710	419.11
630-02-4	octacosane	-621250	1246.7
78-81-9	isobutylamine	-98550	352.35
1189-99-7	2,5,5-trimethylheptane	-269370	509.17
71-55-6	1,1,1-trichloroethane	-142300	320.09
66688-57-1	2-iodo-cis-2-pentene	37770	395.64
111-96-6	diethylene glycol dimethyl ether	-511000	503.95
1617-31-8	3-methyl-3-butenoic acid	-385800	379.58
17702-41-9	decaborane	47280	352.82
2456-27-1	dinonyl ether	-539400	896.77
104-87-0	p-tolualdehyde	-70700	389.48
64265-26-5	2,4-dimethyltetrahydrofuran	-259030	245.63
112-51-6	dipentyl disulfide	-202000	646.7
19781-63-6	4-ethyl-trans-2-hexene	-99800	440.48
91-66-7	N,N'-dietyhlaniline	40200	388.04
26186-01-6	1-nonadecyne	-145000	879.55
61868-65-3	2,4-dimethyl-3-isopropylhexane	-251900	534.87
555-10-2	beta-phellandrene	-5660	423.12
21531-91-9	1,3-hexanediol	-482700	462.55
66577-30-8	ethyl undecyl sulfide	-269450	727.64
105-05-5	p-diethylbenzene	-20370	433.94
5343-96-4	1,2-dimethylpropyl acetate	-525600	460.11
14752-75-1	heptadecylbenzene	-281520	945.49
5617-42-5	heptylcyclopentane	-230300	571.13
26186-02-7	1-tridecyne	-21000	643.95
62108-51-4	1-bromopentatriacontane	-739400	1570.4
62199-78-4	2-methyl-4-ethyl-3-isopropylhexane	-268800	585.09
627-19-0	1-pentyne	144400	330.12
112-73-2	diethylene glycol dibutyl ether	-662000	743.9
98-51-1	1-methyl-4-tert-butylbenzene	-54300	440.12
21968-17-2	propylisopropylamine	-126000	397.31
116-53-0	2-methylbutyric acid	-497000	400.92
45275-74-9	dimethyleicosylamine	-429880	1029
2398-68-7	eicosylbenzene	-343440	1062.3
112-36-7	diethylene glycol diethyl ether	-580000	587.29
62155-09-3	methyl tridecyl sulfide	-286800	765.22
62199-75-1	3,3,4,5,5-pentamethylheptane	-276500	541.16
12031-80-0	lithium peroxide	-242670	273.64
629-27-6	1-iodooctane	-131580	523.24
10024-97-2	nitrous oxide	82050	219.96
93-58-3	methyl benzoate	-287900	415.25
56164-20-6	tridecyl butanoate	-711700	876.46
34075-28-0	2-nitro-2,3-dimethylbutane	-191960	421.61
107-08-4	1-iodopropane	-30300	338.47
624-79-3	ethyl isocyanide	83046	357.51
80-15-9	cumene hydroperoxide	-78400	455.95
76-13-1	1,1,2-trichloro-1,2,2-trifluoroethane	-705800	387
1002-84-2	pentadecanoic acid	-702000	789.1
30122-12-4	1,3-dichloropentane	-183290	408.08
822-23-1	octadecyl acetate	-774900	993.92
632-05-3	1,2,3-tribromobutane	-57460	445.9
872-93-5	3-methyl sulfolane	-420000	372.67
66577-38-6	1,2-dimethyl-4-ethylnaphthalene	51300	509.67
39616-19-8	1-bromo-cis-2-butene	17660	356.28
17302-30-6	2,8-dimethylnonane	-284000	559.69
29559-54-4	1,1-dichloro-2,2-dimethylpropane	-192040	369.21
75-09-2	dichloromethane	-95400	270.28
29488-27-5	3-isopropylthiophene	37080	380.34
19549-79-2	3,5-dimethyl-4-heptanol	-397160	528.89
62183-63-5	3,5-dimethyl-3-ethyloctane	-294900	589.12
66793-88-2	3,3,4,4-tetramethyl-2-pentanol	-404100	470.19
5675-51-4	1,12-dodecanediol	-595470	725.21
62198-83-8	2,2,3,4,4-pentamethylheptane	-282800	541.49
10544-72-6	nitrogen tetraoxide	9080	304.38
17059-53-9	1-methyl-6-ethylnaphthalene	69000	456.09
629-89-0	1-octadecyne	-124400	840.06
56-23-5	carbon tetrachloride	-95800	310.03
19781-24-9	3,3-dimethyl-2-pentanol	-354070	431.16
56399-98-5	5-iodo-trans-2-pentene	47560	399.8
7646-85-7	zinc chloride	-266100	
7440-16-6	rhodium	556900	186.12
62199-16-0	2,3,3-trimethyl-4-ethylheptane	-281600	564.63
66793-84-8	7-methyl-3-octanol	-391880	538.41
431-07-2	1-chloro-1,2,2-trifluoroethane	-699240	343.36
102-76-1	glyceryl triacetate	-1252700	677.3
513-37-1	1-chloro-2-methyl-1-propene	-34200	334.49
121-33-5	vanillin	-369000	467.18
822-15-1	1,1-dichloropentadecane	-398300	821.12
62127-61-1	1,1,1-tribromopropane	-35010	387.13
62127-48-4	1,3-dibromo-2-(bromomethyl)propane	-52180	455.43
6876-23-9	trans-1,2-dimethylcyclohexane	-179900	371.25
629-05-0	1-octyne	82300	447.52
622-96-8	p-ethyltoluene	-3200	399.38
62185-02-8	2,2,3,5-tetramethyl-4-ethylhexane	-287600	559.6
141-79-7	mesityl oxide	-195560	398.73
61868-02-8	2,3-dimethylhexadecane	-425410	838.09
13537-33-2	silane, monofluoro	-376560	238.39
141-43-5	monoethanolamine	-210190	320.74
62126-80-1	1-fluorotricosane	-714160	1083.6
1006-59-3	2,6-diethylphenol	-201980	459.41
26153-88-8	dimethylpentylamine	-120280	444.75
123-63-7	paraldehyde	-645300	338.32
626-38-0	1-methylbutyl acetate	-523700	475.2
79-31-2	isobutyric acid	-478000	362.37
66793-80-4	4-methyl-3-octanol	-391880	538.41
7439-95-4	magnesium	147100	148.65
110-63-4	1,4-butanediol	-428000	377.47
58368-67-5	1-ethylpropyl formate	-468000	442.76
13775-06-9	uranium (III) fluoride	-1058500	332.25
19780-66-6	2-methyl-3-ethyl-1-pentene	-100700	440.58
62183-80-6	2,2,4,5-tetramethyloctane	-305200	574.03
24298-08-6	2-iodo-trans-2-butene	58410	356.69
598-17-4	1,1-dibromopropane	-57870	365.43
26817-31-2	1-nitrotridecane	-322410	742.67
62108-54-7	1-bromononatriacontane	-821960	1726.2
1005-64-7	trans-(1-butenyl)benzene	104020	432.52
53897-51-1	3,4-dimethyl-2-thiapentane	-136700	429.25
10297-57-1	2-methyl-2-nonanol	-410710	557.54
1772-10-7	1-methyl-3-sec-butylbenzene	-49800	467.29
66576-95-2	diethyltetratriacontylamine	-760120	1652.3
76-14-2	1,2-dichloro-1,1,2,2-tetrafluoroethane	-900400	364.11
20488-34-0	2-methyl-cis-3-heptene	-98200	445.85
74-89-5	methylamine	-22500	243.1
812-03-3	1,1,1,2-tetrachloropropane	-182240	358.15
407-06-7	1-fluoro-3-methylbutane	-347920	372.93
624-83-9	methyl isocyanate	-57780	271.45
95-94-3	1,2,4,5-tetrachlorobenzene	-23400	393.61
18610-33-8	4-chloro-trans-2-pentene	-50330	368.08
61868-41-5	2,2,3,4-tetramethylheptane	-275000	533.2
33698-87-2	cis-3-pentenoic acid	-369100	432.47
62184-14-9	2,5,7-trimethylnonane	-306200	599.52
36839-67-5	methyl 1-ethylpropyl ether	-289900	411.83
140-88-5	ethyl acrylate	-349530	407.49
50876-33-0	1,1,3,3-tetramethylcyclopentane	-158470	552.85
7440-54-2	gadolinium	397500	194.55
16020-17-0	1,2,4,7-tetramethylnaphthalene	51300	509.67
7796-54-5	trans-1-iodo-1-propene	88840	321.9
66703-04-6	1-iodo-cis-2-pentene	47560	399.8
1636-41-5	4,5-diethyloctane	-289400	603.21
112-89-0	1-bromooctadecane	-388520	908.19
13417-08-8	methylhexadecylamine	-340740	858.86
87-68-3	hexachloro-1,3-butadiene	-29200	459.77
372-90-7	1,4-difluorobutane	-518110	375.2
62126-74-3	2,4-dimethyl-3-ethylphenol	-213450	453.24
6144-93-0	4,4-dimethyl-2-pentanol	-354070	431.16
62184-98-9	2,2,3,3-tetramethyl-4-ethylhexane	-276200	537.47
75-05-8	acetonitrile	64400	242.6
4911-70-0	2,3-dimethyl-2-pentanol	-354070	431.16
14069-89-7	sec-butyl isocyanide	40000	437.67
62016-29-9	2,2,7-trimethyloctane	-294500	539.23
112-58-3	dihexyl ether	-415500	660.17
23511-78-6	1,1,3-tribromopropane	-31540	416.47
590-35-2	2,2-dimethylpentane	-205800	392.68
19037-72-0	4,4-dimethylcyclopentene	-7100	394.61
3228-01-1	3-methyl-2-isopropylphenol	-207260	449.88
17678-60-3	dimethylpentadecylamine	-326680	834.27
926-63-6	dimethyl-propylamine	-70800	394.35
818-49-5	4-methyl-1-hexanol	-345320	470.03
2876-45-1	2-heptylnaphthalene	-14530	599.42
7439-97-6	mercury	61380	174.84
822-35-5	cyclobutene	156700	262.06
62127-64-4	1,1,1-tribromoheptane	-117570	542.94
109-21-7	butyl butanoate	-524900	522.41
16747-28-7	2,3,3-trimethylhexane	-239300	461.6
17302-13-5	4-propyloctane	-272300	573.78
39622-45-2	1,3-dimethyl-6-ethylnaphthalene	51300	509.67
66271-72-5	trans-1-fluoro-1-hexadecene	-452460	804.35
62198-69-0	2,4,6-trimethyl-4-ethylheptane	-297100	572.68
62199-87-5	3,3,4-triethylhexane	-266900	573.69
503-30-0	1,3-propylene oxide	-75060	265.65
75-85-4	tert-pentyl-alcohol	-329280	366.66
1795-05-7	2,3,5-trimethylthiophene	19420	377.52
66271-50-9	1-nitrohexadecane	-384330	859.53
589-53-7	4-methylheptane	-212000	457.32
15870-10-7	2-methyl-1-heptene	-92810	458.86
14055-74-4	molybdenum (II) iodide	257730	339.38
100-64-1	cyclohexanone oxime	-194000	377.69
62198-86-1	2,2,3,5,5-pentamethylheptane	-308500	551.55
62154-84-1	1-iodotritriacontane	-647580	1497
62155-25-3	1,1,1-tribromotetradecane	-262050	815.6
1565-81-7	3-decanol	-407240	586.89
7789-40-4	thallous bromide	-37700	
3002-57-1	dimethylheptadecylamine	-367960	912.18
107-87-9	methyl propyl ketone	-259200	378.84
112-17-4	decyl acetate	-609300	679.02
460-34-4	1,1,1-trifluorobutane	-722970	368.02
17302-01-1	3-ethyl-3-methylheptane	-256940	522.25
62155-05-9	2-pentadecanethiol	-323500	798.67
592-44-9	1,2-hexadiene	121040	370.15
62199-37-5	2,4,5,6-tetramethyloctane	-299400	583.42
61868-23-3	2,3-dimethyl-5-ethylheptane	-279200	554.33
12136-26-4	indium monoxide	387000	236.18
1741-83-9	methyl pentyl sulfide	-122700	451.32
34949-22-9	1,1-dimethylpropyl propanoate	-558700	486.85
6975-98-0	2-methyldecane	-275650	582.43
2847-72-5	4-methyldecane	-274600	582.5
66291-72-3	cis-1-bromo-1-decene	-106180	589.99
13520-76-8	tungsten (VI) dioxydichloride	-671530	353.87
62155-02-6	2-undecanethiol	-241000	641.72
61827-99-4	hexatriacontylcyclopentane	-829090	1702.6
629-64-1	diheptyl ether	-456800	738.81
97-96-1	2-ethylbutanal	-266000	372.11
6481-95-4	4,4-dimethyl-1-hexanol	-369430	479.64
6863-58-7	di-sec-butyl ether	-360660	463.98
112-54-9	dodecanal	-373300	657.61
105-60-2	epsilon-caprolactam	-246200	364.31
112-75-4	dimethyltetradecylamine	-306040	795.32
119-61-9	benzophenone	59000	441.53
62017-37-2	1,1-dichloropentatriacontane	-802490	1576.7
62127-33-7	3-fluoro-2-methylpentane	-373840	402.36
3922-24-5	1,1,1-trichlorotridecane	-369200	756.81
623-56-3	5-methyl-3-hexanone	-305670	445.84
115-86-6	triphenyl phosphate	-757300	
17312-54-8	3,7-dimethyldecane	-299900	613.6
62183-99-7	2,3-dimethyl-3-ethyloctane	-293900	581.74
34715-98-5	1-nitro-2,2-dimethylpropane	-166040	392.18
66688-74-2	cis-1-fluoro-1-nonene	-307980	531.69
79-06-1	acrylamide	-170000	300.48
15600-49-4	iron (III) iodide	71000	
3741-00-2	pentylcyclopentane	-189000	492.83
5161-14-8	2,trans-5-dimethylthiacyclopentane	-90400	
99-94-5	p-toluic acid	-322800	406.69
66326-15-6	eicosyl formate	-758900	1038.1
612-60-2	7-methylquinoline	199190	336.74
62154-90-9	1-iodononatriacontane	-771420	1730.8
7446-70-0	aluminum chloride	-584590	314.52
51200-80-7	4-methyl-3-ethyl-3-hexanol	-395350	509.07
109-73-9	butylamine	-92000	364.59
62016-77-7	1-chlorotricosane	-534890	1081.6
4032-93-3	2,3,6-trimethylheptane	-263420	515.67
100-00-5	p-chloronitrobenzene	37200	366.86
53268-66-9	cis-1-chloro-1-heptene	-86330	455.51
62199-70-6	2,3,4,4,5-pentamethylheptane	-284300	551.55
353-81-1	2,2-difluorobutane	-526860	336.33
4279-22-5	2,2-dichlorobutane	-166120	339.78
6982-25-8	dl-2,3-butanediol	-477000	418.66
578-54-1	o-ethylaniline	38500	389.23
75-47-8	iodoform	210900	355.64
12018-01-8	chromium (IV) oxide	-75310	269.43
125164-51-4	pentadecyl butanoate	-753100	955.11
7698-05-7	deuterium chloride	-93350	192.74
22768-17-8	3-methyl-cis-3-heptene	-105300	442.53
3054-92-0	2,3,4-trimethyl-3-pentanol	-379990	460.59
19411-41-7	3,3,4-trimethyl-2-pentanol	-379990	460.59
5340-41-0	2,2,3-trimethyl-3-hexanol	-398820	479.72
291-64-5	cycloheptane	-118100	343.17
18480-07-4	strontium hydroxide	-595800	301.35
66271-56-5	ethyltetradecylamine	-320100	819.91
66563-90-4	trans-1-bromo-1-heptadecene	-250660	862.66
551-88-2	3-nitropentane	-162570	421.53
1074-55-1	1-methyl-4-propylbenzene	-23140	431.02
10525-37-8	eicosylamine	-421800	993.39
5398-25-4	2,3-dibromopentane	-104430	433.81
66291-90-5	dimethyltetracosylamine	-512440	1184.8
7611-88-3	cis-1-chloro-2-methyl-1-butene	-54840	373.45
62126-76-5	3,5-dimethyl-2-ethylphenol	-213450	453.24
593-08-8	2-tridecanone	-424900	694.08
62198-81-6	2,2,3,3,5-pentamethylheptane	-297700	545.18
10026-17-2	cobalt (II) fluoride	-356480	277.98
66291-43-8	trans-1-fluoro-1-pentadecene	-431820	765.4
632-16-6	2,3-dimethylthiophene	53400	352.09
116-14-3	tetrafluoroethylene	-658600	300.01
565-75-3	2,3,4-trimethylpentane	-217300	428.48
7783-80-4	tellurium hexafluoride	-1318000	
14130-05-3	nonadecylamine	-401200	954.24
66213-72-7	cis-1-fluoro-2-methyl-1-butene	-235210	371.72
2416-94-6	2,3,6-trimethylphenol	-192810	414.28
144-62-7	oxalic acid	-723700	342.17
102-82-9	tributylamine	-233000	657.69
20654-46-0	2,2-dimethylbutanenitrile	-26200	379.76
111-71-7	1-heptanal	-269400	461.51
7642-04-8	cis-2-octene	-89500	466.84
1560-96-9	2-methyltridecane	-337570	691.81
76-01-7	pentachloroethane	-145600	381.63
506-77-4	cyanogen chloride	137950	236.33
2051-32-3	3-ethyl-3-octanol	-410710	557.54
373-17-1	1,5-difluoropentane	-538750	414.15
23646-58-4	threo-4,4-dimethyl-2,3-pentanediol	-511580	472.53
5955-98-6	2,trans-3-dimethylthiacyclopropane	3890	
62168-19-8	1,1-dibromotetracontane	-821550	1806.7
600-06-6	1-chloro-2,3-dimethylbutane	-193470	404.09
13279-85-1	1,1,1-trichlorobutane	-183600	399.4
1595-04-6	1-methyl-3-butylbenzene	-46100	477.02
66213-76-1	1-fluoro-2-methyl-cis-2-butene	-235210	371.72
109-93-3	divinyl ether	-14000	334.38
141-59-3	tert-octyl mercaptan	-205000	470.93
12039-90-6	zirconium silicide	474000	
66455-36-5	methylnonadecylamine	-402660	975.72
693-83-4	didecyl sulfide	-414630	996.82
57-55-6	1,2-propanediol (propylene glycol)	-433000	314.03
51079-52-8	4,6-dimethyl-2-heptanol	-397160	528.89
629-96-9	1-eicosanol	-605200	989.49
61868-94-8	3,5,5-trimethyloctane	-279500	552.31
66326-14-5	1,1-diiodoheneicosane	-328310	1075.7
66213-90-9	3-fluoro-cis-2-pentene	-235210	371.72
17302-36-2	5-ethyldecane	-293200	620.31
100-47-0	benzonitrile	218800	321.48
17312-39-9	4,4-dimethyldecane	-302700	597.17
7440-30-4	thulium	232200	190.38
62183-54-4	2,6-dimethyl-6-ethyloctane	-304500	582.75
19549-73-6	2,6-dimethyl-3-heptanol	-397160	528.89
2443-91-6	1,1-dibromo-2,2-dimethylpropane	-99150	443.33
112-92-5	1-octadecanol	-563800	910.85
42843-49-2	cis-1-bromo-1-octene	-64900	512.09
563-46-2	2-methyl-1-butene	-34900	339.65
62127-51-9	1-iodononadecane	-358620	951.71
594-37-6	1,2-dichloro-2-methylpropane	-166120	339.78
616-12-6	3-methyl-trans-2-pentene	-62500	381.83
6339-13-5	2-methylpentanenitrile	-16100	397.87
62017-31-6	1,1-dichlorononacosane	-678650	1342.9
110-62-3	pentanal	-227800	382.86
105-42-0	4-methyl-2-hexanone	-305670	445.84
3788-32-7	isobutylcyclopentane	-173890	446.63
3007-31-6	didodecylamine	-485220	1131.5
13463-40-6	iron pentacarbonyl	-727850	439.27
25419-06-1	methylpentylamine	-107500	451.18
762-63-0	4,4-dimethyl-cis-2-pentene	-74100	253.78
66271-67-8	cis-1-bromo-1-hexadecene	-230020	823.7
13151-35-4	5-methyldecane	-274600	582.5
66214-25-3	methyldotriacontylamine	-670980	1482.1
66577-10-4	dimethylpentatriacontylamine	-739480	1613.3
6221-93-8	dodecyl propanoate	-668700	797.15
66793-82-6	6-methyl-4-octanol	-391880	538.41
62199-83-1	2,3,4-trimethyl-3-isopropylhexane	-259400	543.84
96-22-0	diethyl ketone	-257900	370.12
1120-49-6	didecylamine	-402660	975.72
20395-24-8	1,1-dichlorooctane	-253900	543.35
1632-71-9	5-methyl-4-ethylnonane	-292100	607.23
597-49-9	3-ethyl-3-pentanol	-348790	440.69
13550-49-7	deuteroammonia	-58580	203.93
17312-52-6	2,8-dimethyldecane	-302400	609.91
97-63-2	ethyl methacrylate	-381000	443.55
55757-34-1	1,1,1-trifluorononane	-826170	562.79
79-04-9	chloroacetyl chloride	-245600	326.18
1795-22-8	tetradecylcyclopentane	-375000	844.2
24621-18-9	zirconium tribromide	-430950	371.72
62185-32-4	2,5-dimethyl-4-propylheptane	-298400	593.14
75-29-6	2-chloropropane	-144800	306.08
91-57-6	2-methylnaphthalene	116110	381
23079-20-1	1,16-hexadecanediol	-678030	881.02
62198-63-4	2,4,4-trimethyl-3-ethylheptane	-272100	567.99
1595-06-8	1-methyl-2-sec-butylbenzene	-44000	462.26
124-22-1	dodecylamine	-257000	679.16
62016-35-7	2,4,4-trimethyloctane	-281800	547.28
1480-63-3	1-fluorononadecane	-613800	939.83
53121-23-6	1-iodo-cis-2-butene	68200	360.85
17085-96-0	3-ethyldecane	-293400	615.95
13765-26-9	gadolinium (III) fluoride	-1297000	
5989-27-5	d-limonene	-6400	
62183-88-4	3-methyl-4-isopropyloctane	-286800	598.17
2077-33-0	cis-1-methyl-2-(1-propenyl)benzene	92550	426.35
62185-33-5	2,6-dimethyl-4-propylheptane	-305500	585.43
66225-52-3	2,3-dimethyl-1,3-pentanediol	-513200	458.91
62016-19-7	2-methyl-6-ethyloctane	-279600	563.38
4926-90-3	1-methyl-1-ethylcyclohexane	-200000	409.87
7789-60-8	phosphorus tribromide	-146020	348.25
111823-35-9	3-methyl-2-isopropyl-1-butene	-103370	439.81
52688-89-8	1,1,2,2-tetramethylcyclopentane	-158470	552.85
66213-74-9	trans-1-fluoro-2-methyl-1-butene	-235210	371.72
7721-01-9	tantalum (V) chloride	-764830	413.01
6032-29-7	2-pentanol	-313800	397.13
62108-94-5	1-fluorotetracontane	-1065000	1745.8
593-95-3	carbonyl bromide	-96200	309.83
408-38-8	1-fluorohexadecane	-552000	820.69
66359-78-2	methyltetracosylamine	-505860	1170.5
62184-05-8	2,4-dimethyl-5-ethyloctane	-298400	593.14
107-10-8	propylamine	-70100	325.43
994-05-8	methyl tert-pentyl ether	-312000	407.8
23068-94-2	3-bromo-cis-2-pentene	-12770	391.07
14130-07-5	tricosylamine	-484260	1103.5
66213-78-3	2-fluoro-3-methyl-1-butene	-232280	364.17
66576-21-4	2,2,3,4,4-pentamethyl-3-ethylpentane	-238100	493.19
7787-71-5	bromine trifluoride	-255590	292.4
62199-22-8	2,3,3,4-tetramethyloctane	-292100	561.28
105-46-4	sec-butyl acetate	-503800	440.07
103-73-1	phenetole	-101700	402.6
692-96-6	2-methyl-trans-3-heptene	-103200	429.08
62016-30-2	2,3,3-trimethyloctane	-279600	543.93
100-61-8	N-methylaniline	88000	341.69
13465-07-1	hydrogen disulfide	15500	
15869-94-0	3,6-dimethyloctane	-258240	525.87
23418-38-4	4-methyl-4-nonanol	-410710	557.54
101-84-8	diphenyl ether	44300	420.03
66577-25-1	dimethyltetratriacontylamine	-718840	1574.4
539-90-2	isobutyl butanoate	-533000	524.42
4358-75-2	2-amino-2,3-dimethylbutane	-156300	363.1
689-97-4	vinylacetylene	304600	279.62
629-90-3	heptadecanal	-477200	853.71
111-77-3	2-(2-methoxyethoxy)ethanol	-530000	573.8
62108-64-9	1,1,1-trichloroeicosane	-513600	1034.6
61868-92-6	2,4-dimethyl-3,3-diethylpentane	-238200	516.09
2243-27-8	nonanenitrile	-64210	512.68
3922-26-7	1,1,1-trichloroheptane	-245400	518.87
16747-45-8	2,2,3,4,4-pentamethylpentane	-247020	464.29
62017-19-0	1,1-dichlorohexadecane	-418900	860.94
23010-07-3	1,3-dichloro-2-methylbutane	-188570	398.56
107-18-6	allyl alcohol	-131900	308.25
918-84-3	3-chloro-3-methylpentane	-191660	384.27
7778-80-5	potassium sulfate	-1094120	366.18
7225-71-0	1-undecylnaphthalene	-102000	739.2
62016-39-1	2,5,5-trimethyloctane	-288900	544.6
932-44-5	1-methyl-trans-2-propylcyclopentane	-188950	413.79
719-79-9	1,1-diphenylbutane	93000	
763-30-4	2-methyl-1,4-pentadiene	73900	376.35
61828-35-1	dl-erythro-2,3-pentanediol	-481000	368.26
64-19-7	acetic acid	-432300	312.3
20278-89-1	3,4,5-trimethylheptane	-252840	518.59
420-46-2	1,1,1-trifluoroethane	-745600	287.3
66576-66-7	tripentadecylamine	-904600	1924.9
7440-18-8	ruthenium	642700	185.8
541-41-3	ethyl chloroformate	-458000	345.33
14602-62-1	1,1,2-tribromopropane	-36820	406.95
5814-85-7	1,2-diphenylpropane	117000	525.13
540-88-5	tert-butyl acetate	-523000	406.87
629-94-7	heneicosane	-476770	974
2027-19-2	2-propylnaphthalene	73470	461.02
31032-94-7	2-methyl-3-ethylnaphthalene	65770	458.64
62168-33-6	1,1-dibromohexadecane	-326190	871.81
13966-94-4	indium (I) iodide	7500	267.47
627-59-8	5-methyl-2-hexanol	-350600	460.51
62199-74-0	3,3,4,4,5-pentamethylheptane	-279900	538.14
18300-91-9	pentadecanenitrile	-188050	746.39
88-73-3	o-chloronitrobenzene	37200	370.21
10524-70-6	3,3-dimethyl-1-hexanol	-369430	479.64
95-53-4	o-toluidine	58000	348.39
66292-32-8	propyl pentadecyl sulfide	-372670	924.48
62127-29-1	1-fluoro-4-methylpentane	-368560	411.89
630-05-7	tritriacontane	-724450	1441.4
4894-61-5	1-chloro-trans-2-butene	-24410	338.65
693-58-3	1-bromononane	-202760	557.62
7440-21-3	silicon	450000	167.97