CAS	name	Hf(g)	S0(g)
18338-40-4	1,2,3-trichlorobutane	-183670	393.03
62185-34-6	3,3-dimethyl-4-propylheptane	-286400	580.06
5379-20-4	1-ethenyl-3,5-dimethylbenzene	89290	422.16
1190-76-7	cis-crotonitrile	134000	309.29
16789-51-8	3-ethyl-3-hexene	-104000	446.89
66214-01-5	diethylhexacosylamine	-595000	1340.7
28028-91-3	cis-1-fluoro-1-heptene	-266700	453.78
108-82-7	2,6-dimethyl-4-heptanol	-410000	521.91
1615-75-4	1-chloro-1-fluoroethane	-313800	300.63
3404-78-2	2,5-dimethyl-2-hexene	-115300	417.17
1758-85-6	1-methyl-2,4-diethylbenzene	-48700	476.68
62198-67-8	2,4,5-trimethyl-5-ethylheptane	-297000	562.96
13478-20-1	phosphorus oxyfluoride	-1254300	285.18
62108-84-3	1-fluorotriacontane	-858640	1356.3
101-83-7	dicyclohexylamine	-185000	475.32
75-21-8	ethylene oxide	-52600	243.27
7787-53-3	beryllium iodide	-64020	291.58
110-80-5	2-ethoxyethanol	-400000	398.53
768-00-3	trans-(1-methyl-1-propenyl)benzene	94230	428.37
1072-43-1	2-methylthiacyclopropane	46110	
28148-04-1	1,3-dibromo-2-methylpropane	-78510	404.38
75-91-2	t-butyl hydroperoxide	-243000	364.66
565-76-4	2,3,4-trimethyl-1-pentene	-105700	766.99
76-16-4	hexafluoroethane	-1343000	331.41
62183-72-6	4,5-dimethyl-3-ethyloctane	-290400	587.78
66271-70-3	trans-1-chloro-1-hexadecene	-272090	806.08
31366-00-4	1,2,3-trimethyl-5-ethylbenzene	-59800	462.6
81931-81-9	2,3-dimethyl-2-tert-butyl-1-butanol	-424740	509.14
62199-89-7	2,3-dimethyl-3,4-diethylhexane	-269900	572.35
121-73-3	m-chloronitrobenzene	37200	373.57
66213-94-3	diethylpentacosylamine	-574360	1301.7
62198-82-7	2,2,3,3,6-pentamethylheptane	-307100	537.13
7307-55-3	undecylamine	-236400	639.67
5340-62-5	5,5-dimethyl-3-ethyl-3-hexanol	-419460	518.67
693-39-0	1-nitroheptane	-198570	508.96
17453-92-8	5,5-dimethyldecane	-302700	597.17
17773-64-7	2-chloro-3-methyl-1-butene	-51910	365.9
13465-09-3	indium (III) bromide	-282000	
41065-95-6	3-ethyl-1-hexanol	-365960	508.99
1070-32-2	3-methyl-1-heptanol	-365960	508.99
62185-05-1	2,2,4,5-tetramethyl-4-ethylhexane	-289700	545.85
66213-98-7	1,1-diiodotriacontane	-514070	1426.3
926-56-7	4-methyl-1,3-pentadiene	65690	374.37
21908-53-2	mercury (II) oxide	41840	239.04
33653-28-0	butyl methyl sulfite	-559500	
7719-09-7	thionyl chloride	-212500	310.08
13986-26-0	zirconium iodide	-362330	446.69
7440-34-8	actinium	406000	190.66
123-02-4	tridecylbenzene	-199700	792.26
62127-31-5	2-fluoro-3-methylpentane	-373840	402.36
110-43-0	2-heptanone	-300900	457.82
7789-47-1	mercuric bromide	-85450	320.1
7783-48-4	strontium fluoride	-766090	288.02
4806-58-0	1,cis-2,cis-3-trimethylcyclopropane	-135050	-10.09
61847-82-3	1-docosyne	-205510	982.45
62184-34-3	2-methyl-5-propyloctane	-299900	599.85
625-28-5	3-methylbutanenitrile	4400	355.03
108-91-8	cyclohexylamine	-104900	351.76
66359-76-0	dimethyltricosylamine	-491800	1145.9
2738-19-4	2-methyl-2-hexene	-85800	399.75
629-66-3	2-nonadecanone	-549000	930.01
105-67-9	2,4-xylenol	-162900	393.38
1454-84-8	1-nonadecanol	-584500	950.34
27424-87-9	1-methyl-4-ethylnaphthalene	69000	456.09
115-25-3	octafluorocyclobutane	-1528000	400.92
62184-51-4	2,2,5-trimethylnonane	-312700	582.41
62016-17-5	2-methyl-4-ethyloctane	-278800	567.07
3454-07-7	p-ethylstyrene	100760	428.33
17085-91-5	1-tert-butylnaphthalene	51300	509.67
66577-08-0	heptatriacontylamine	-773220	1648.8
62184-30-9	4,4,6-trimethylnonane	-300000	590.12
53731-25-2	2,3-difluoro-2-methylbutane	-552780	365.76
62127-35-9	1-fluoro-2,3-dimethylbutane	-372030	382.54
62185-10-8	2,3,4,5-tetramethyl-3-ethylhexane	-275500	563.29
2876-52-0	1-heptylnaphthalene	-14000	596
554-12-1	methyl propanoate	-427500	360.09
62017-39-4	1,1-dichloroheptatriacontane	-843770	1654.6
4291-99-0	1-hexylcyclopentene	-102800	
17312-56-0	4,7-dimethyldecane	-299700	606.22
98-88-4	benzoyl chloride	-105300	368.59
75-75-2	methanesulfonic acid	-583000	190.98
625-66-1	1,1-dichloro-3-methylbutane	-188570	398.56
760-21-4	trans-3-hexene	-52300	377.13
62168-37-0	1,1-dibromoeicosane	-408750	1027.6
295-97-6	cycloheptadecane	-364300	
62168-12-1	1,1-dibromotritriacontane	-677070	1534
121-32-4	ethyl vanillin	-404000	506.33
75-73-0	carbon tetrafluoride	-933500	261.4
765-03-7	1-dodecyne	-300	604.8
52897-09-3	2,2,3,5-tetramethylhexane	-268990	492.9
61827-93-8	triacontylcyclopentane	-705250	1468.9
7667-55-2	1,cis-2,trans-3-trimethylcyclohexane	-215450	391.36
872-10-6	dipentyl sulfide	-208530	605.92
5205-34-5	5-decanol	-407240	586.89
39782-43-9	5,5-dimethyl-trans-2-hexene	-113400	377.16
1458-98-6	3-bromo-2-methyl-1-propene	16080	354.1
66292-47-5	trans-1-chloro-1-octadecene	-313370	883.98
62017-17-8	1,1-dichlorododecane	-336400	701.98
62185-37-9	2,2-dimethyl-3-isopropylheptane	-278600	565.31
20668-26-2	3,6-dimethylquinoline	167080	369.52
52897-04-8	3-ethyl-2,5-dimethylhexane	-260540	515.64
626-88-0	1-bromo-4-methylpentane	-146120	431.24
3931-89-3	phosphorus thiobromide	-263590	372.84
85-01-8	phenanthrene	207500	396.01
108-98-5	phenyl mercaptan	111500	337.45
66577-55-7	1,1-diiodoheptadecane	-245750	919.9
646-14-0	1-nitrohexane	-177930	470.01
334-68-9	1-fluorododecane	-469400	662.07
62184-09-2	2,5-dimethyl-5-ethyloctane	-304400	586.1
62183-87-3	2-methyl-5-isopropyloctane	-302000	590.8
7789-89-1	1,1,1-trichloropropane	-162900	359.91
7487-94-7	mercuric chloride	-146290	294.66
29772-40-5	2,2,3-trimethyl-3-heptanol	-419460	518.67
40243-75-2	2,3-dimethylstyrene	89290	422.16
84-15-1	o-terphenyl	277000	528.39
7774-29-0	mercuric iodide	-16130	336.08
62184-59-2	2,3,7-trimethylnonane	-302600	601.19
66577-22-8	1,2,4,8-tetramethylnaphthalene	51300	509.67
591-34-4	sec-butyl propanoate	-512700	484.93
66225-38-5	dimethyl-1,2-dimethylpropylamine	-125560	435.23
10026-10-5	uranium (IV) chloride	-809600	419
34994-81-5	1-iodoeicosane	-379260	990.67
620-11-1	1-ethylpropyl acetate	-525400	477.21
66359-56-6	trans-1-fluoro-1-nonadecene	-514380	921.21
7440-31-5	tin (white)	301200	168.57
39924-58-8	cis-1-bromo-1-nonene	-85540	551.04
4132-77-8	1,2-dimethyl-4-isopropylbenzene	-59300	464.61
111-43-3	dipropyl ether	-293100	424.24
874-41-9	4-ethyl-m-xylene	-30800	437.53
66213-70-5	trans-1-chloro-1-pentene	-45050	377.6
54877-00-8	5-methyl-2,4-hexanediol	-508110	501.87
4276-49-7	1-bromoeicosane	-429800	986.1
62127-19-9	1,1-difluorotriacontane	-1077100	1321.2
628-32-0	ethyl propyl ether	-272200	388.78
19550-87-9	3,4-dimethyl-cis-3-hexene	-107200	464.83
62108-90-1	1-fluorohexatriacontane	-982480	1590
66142-61-8	trans-1-chloro-1-undecene	-168890	611.32
629-11-8	1,6-hexanediol	-469400	473.79
111-90-0	2-(2-ethoxyethoxy)ethanol	-565000	519.04
57-10-3	hexadecanoic acid	-723000	881.92
62184-22-9	3,4,4-trimethylnonane	-297100	583.42
13863-41-7	bromine chloride	14640	240.01
62184-01-4	2,3-dimethyl-5-ethyloctane	-299700	597.84
62184-54-7	2,2,8-trimethylnonane	-315200	578.72
68-12-2	N,N'-dimethylformamide	-191700	326.54
620-14-4	m-ethyltoluene	-1800	404.75
66359-52-2	trans-1-bromo-1-nonadecene	-291940	940.56
62199-44-4	3,3,5,5-tetramethyloctane	-293000	568.99
106-97-8	butane	-126800	304.4
28028-92-4	trans-1-fluoro-1-heptene	-266700	453.78
87-61-6	1,2,3-trichlorobenzene	9000	369.54
14977-61-8	chromium oxychloride	-538100	329.61
31844-96-9	2-bromo-3-methyl-1-butene	-9840	383.52
66576-47-4	1,1-diiodotetracontane	-720470	1815.8
13501-73-0	3,5-dimethyl-1-hexanol	-371240	499.46
7440-55-3	gallium	272000	169.36
66576-97-4	dinonadecylamine	-774180	1676.9
6975-92-4	2,5-dimethyl-1-hexene	-105700	423.81
6196-80-1	1-iodo-4-methylpentane	-95580	435.81
80-46-6	p-tert-amylphenol	-212000	481.93
61886-63-3	3-heptadecyne	-121910	789.94
598-45-8	isopropyl isocyanide	61000	399.92
28623-46-3	nonadecanenitrile	-270610	902.2
598-23-2	3-methyl-1-butyne	136400	319.99
13432-25-2	2,4-dimethyl-3-hexanol	-376520	489.94
62183-56-6	2,7-dimethyl-4-ethyloctane	-306400	593.14
124-13-0	1-octanal	-290200	500.66
66256-48-2	2,5,6-trimethyl-2-heptanol	-421270	538.49
62127-57-5	1-iodoheptacosane	-523740	1263.3
54004-41-0	4-methyl-2-propyl-1-pentanol	-341350	540.39
20038-12-4	4-bromo-2-methyl-1-butene	-4560	393.05
334-48-5	decanoic acid	-594300	599.04
590-66-9	1,1-dimethylcyclohexane	-180800	364.88
1111-74-6	dimethyl silane	-94700	301.06
992-94-9	methyl silane	-29100	256.84
97-65-4	itaconic acid	-729000	438.62
13714-85-7	4-methyl-trans-3-heptene	-105300	442.53
6175-49-1	2-dodecanone	-404300	654.59
66375-02-8	diethylnonadecylamine	-450520	1068
62183-53-3	2,6-dimethyl-5-ethyloctane	-299200	595.49
7647-01-0	hydrogen chloride	-92310	186.9
1656-48-0	bis(cyanoethyl) ether	20400	420.02
61868-09-5	2,4-dimethylheptadecane	-446050	877.05
66142-62-9	trans-1-fluoro-1-undecene	-349260	609.59
66587-65-3	1,1-diiodobutane	22570	413.52
18636-94-7	dimethyl-3-pentylamine	-125560	435.23
62127-10-0	1,1-difluoroheneicosane	-892600	966.39
26438-27-7	1-decylnaphthalene	-80000	703.4
23425-81-2	1-fluoro-3-methyl-2-butene	-235210	371.72
34317-39-0	methyl-1,2-dimethylpropylamine	-122000	410.73
693-54-9	2-decanone	-362900	575.95
54630-82-9	dl-2,4-dimethyl-1,5-pentanediol	-498600	525.59
66576-88-3	diethylhentriacontylamine	-698200	1535.4
20667-05-4	2-methyl-1,2-pentanediol	-495200	402.92
23009-73-6	1-chloro-2-methyl-trans-2-butene	-54840	373.45
618-45-1	3-isopropylphenol	-175150	417.1
62016-92-6	1-chlorotetracontane	-874890	1780.3
62185-29-9	2,2,3,4-tetramethyl-3-pentanol	-404100	470.19
62016-32-4	2,3,5-trimethyloctane	-281100	560.03
18435-20-6	2,3-dimethyltridecane	-363490	721.24
19550-83-5	4,4-dimethyl-cis-2-hexene	-87200	465.03
7580-67-8	lithium hydride	140620	170.94
62155-11-7	2-thianonadecane	-369300	922.17
107-25-5	methyl vinyl ether	-108000	308.25
4340-76-5	2-eicosanol	-613640	1012.5
66214-09-3	diethylheptacosylamine	-615640	1379.6
7782-77-6	nitrous acid	-76740	249.42
66271-77-0	tridecyl propanoate	-689400	836.64
1134-62-9	2-butylnaphthalene	52300	501.18
691-42-9	1,3-difluorobutane	-523390	365.68
61868-80-2	2,3,4-trimethyl-4-ethylhexane	-265300	527.49
66225-54-5	4,4-dimethyl-1,2-pentanediol	-512000	462.93
624-64-6	trans-2-butene	-11000	296.48
62185-35-7	3,4-dimethyl-4-propylheptane	-290700	573.35
13701-86-5	tungsten (VI) bromide	-243090	482.65
62183-90-8	4-methyl-4-isopropyloctane	-293800	579.06
40276-93-5	3-methyl-1-hexyne	96500	401.65
66292-45-3	trans-1-bromo-1-octadecene	-271300	901.61
1068-87-7	2,4-dimethyl-3-ethylpentane	-227900	471.66
62127-53-1	1-iododocosane	-420540	1068.6
21078-72-8	3-methyl-3-nonanol	-410710	557.54
7718-54-9	nickel (II) chloride	-73930	294.27
543-59-9	1-chloropentane	-174890	397.84
2551-62-4	sulfur hexafluoride	-1220470	291.54
107-21-1	ethylene glycol	-387500	303.79
38146-95-1	1,4-dodecanediol	-600750	715.69
102-88-5	trioctadecylamine	-1090400	2275.5
107-12-0	propionitrile	51500	285.44
95-50-1	o-dichlorobenzene	29700	341.79
7783-39-3	mercury (II) fluoride	-293650	271.61
20748-86-1	2,4-heptanediol	-517800	461.19
66576-23-6	4-methyl-3-ethyl-2-pentanol	-376520	489.94
35073-27-9	2-methylbutyl formate	-454500	442.76
589-38-8	3-hexanone	-277700	409.94
26423-60-9	3-chloro-cis-2-pentene	-54840	373.45
62183-57-7	3,3-dimethyl-4-ethyloctane	-286600	587.44
79-46-9	2-nitropropane	-139000	344.23
142-96-1	dibutyl ether	-332900	502.55
2315-43-7	dimethyl-3-methylbutylamine	-125560	435.23
7667-59-6	1,trans-2,cis-4-trimethylcyclohexane	-215450	391.36
20901-21-7	disulfur oxide	-56480	267.02
75-38-7	1,1-difluoroethylene	-336800	265.46
66577-37-5	1,7-diethylnaphthalene	51300	509.67
10496-15-8	dihexyl disulfide	-243000	728.36
62184-18-3	3,3,4-trimethylnonane	-297100	584.09
66359-54-4	trans-1-chloro-1-nonadecene	-334010	922.94
693-65-2	di-pentyl ether	-374200	581.19
32114-79-7	2-methyl-1-isopropylnaphthalene	51300	509.67
80-05-7	bisphenol a	-245600	544.54
488-23-3	1,2,3,4-tetramethylbenzene	-41800	418.08
108-94-1	cyclohexanone	-225700	334.61
625-25-2	2-methyl-2-heptanol	-369430	479.64
66256-66-4	2,3,4,4-tetramethyl-2-hexanol	-424740	509.14
617-78-7	3-ethylpentane	-189660	412.6
7789-75-5	calcium fluoride	-784500	273.8
66142-63-0	cis-1-iodo-1-undecene	-76280	633.51
60-09-3	p-aminoazobenzene	330000	504.85
61868-49-3	2,3,3,4-tetramethylheptane	-271400	522.13
552-30-7	trimellitic anhydride	-778000	349.63
74-96-4	bromoethane	-63600	287.17
62127-01-9	1,1,1-trifluorohexadecane	-970650	835.45
918-82-1	3,3-dimethyl-1-pentyne	83300	384.21
16747-26-5	2,2,4-trimethylhexane	-243200	467.97
13540-56-2	3',4'-dimethyldiphenylmethane	97190	515.11
66225-15-8	3-ethyl-trans-2-hexene	-104000	446.89
24608-85-3	5-methyl-trans-2-heptene	-100100	439.47
35599-78-1	1-iodopentadecane	-276060	795.9
66225-50-1	1,1-diiodohexane	-18710	491.43
107-84-6	1-chloro-3-methylbutane	-180330	400.65
62185-31-3	2,4-dimethyl-4-propylheptane	-297100	581.07
817-91-4	4-methyl-1-heptanol	-365960	508.99
123-96-6	2-octanol	-376100	515.96
7440-63-3	xenon	0	169.69
628-17-1	1-iodopentane	-69660	406.38
66256-62-0	4-methyl-2-propyl-1-hexanol	-412520	577.37
108-68-9	3,5-xylenol	-161500	392.04
132-64-9	dibenzofuran	83400	306.45
62198-98-5	3-methyl-4,4-diethylheptane	-277300	582.75
293-55-0	cyclononane	-132800	
112-44-7	undecanal	-352200	618.46
3043-33-2	2-methyl-2,3-pentadiene	103040	364.01
62183-98-6	2,2-dimethyl-6-ethyloctane	-310800	576.71
4292-00-6	1-heptylcyclopentene	-123600	
110-01-0	tetrahydrothiophene	-33800	309.75
7647-14-5	sodium chloride	-181420	229.64
7145-20-2	2,3-dimethyl-2-hexene	-108500	460.47
108-64-5	ethyl isovalerate	-527000	482.58
1795-27-3	1,cis-3,cis-5-trimethylcyclohexane	-215200	390.95
62184-39-8	2-methyl-6-ethylnonane	-300100	606.89
7783-60-0	sulfur tetrafluoride	-763160	299.65
52897-01-5	4-ethyl-2,3-dimethylhexane	-252840	515.64
10377-58-9	magnesium iodide	-160250	317.49
612-58-8	3-methylquinoline	199190	336.74
7440-04-2	osmium	791000	187.28
40323-88-4	2-methyl-5-ethyl thiophene	30890	383.69
105-76-0	dibutyl maleate	-688000	742.88
95-71-6	1,4-dihydroxy-2-methylbenzene	-305900	375.2
61868-36-8	3,4-dimethyl-5-ethylheptane	-269900	549.97
77-47-4	hexachlorocyclopentadiene	-102000	456.45
676-44-8	1-fluoroeicosane	-634500	979.32
66291-86-9	diethyltricosylamine	-533080	1223.8
52254-50-9	2-methyl-1-nonadecene	-340490	926.29
617-80-1	2-ethylbutanenitrile	-14100	392.17
594-21-8	1,1,1-triiodoethane	137250	361.89
66719-5I-5	4,4-dimethyl-3-isopropyl-1-pentanol	-421270	538.49
2568-33-4	3-methyl-1,3-butanediol	-480000	178.22
29833-69-0	2-methyl-1-pentadecene	-257930	770.48
62184-35-4	3-methyl-4-propyloctane	-292100	607.23
1123-94-0	3-methyl-4-ethylphenol	-181340	420.46
16747-50-5	1-methyl-1-ethylcyclopentane	-154900	401.87
624-54-4	pentyl propanoate	-523500	521.4
111-85-3	1-chlorooctane	-234890	465.15
611-14-3	o-ethyltoluene	1300	400.05
1476-11-5	1,4-dichloro-cis-2-butene	78200	536.45
95-13-6	indene	163400	333.9
7790-99-0	iodine chloride	17510	247.57
1595-11-5	1-methyl-2-butylbenzene	-41700	472.32
66577-27-3	methylpentatriacontylamine	-732900	1599
90-12-0	1-methylnaphthalene	116860	378.35
1333-74-0	hydrogen	0	130.68
108-42-9	m-chloroaniline	57300	356.45
1595-05-7	1-methyl-4-butylbenzene	-45900	470.31
54653-30-4	2-bromo-trans-2-pentene	-12770	391.07
2935-44-6	2,5-hexanediol	-500000	412.71
1871-58-5	1,2,3-trichloro-2-methylpropane	-181860	373.2
62185-45-9	2,6-dimethyl-3-isopropylheptane	-296700	576.04
62108-46-7	1-bromoheptacosane	-574280	1258.8
7789-23-3	potassium fluoride	-326770	226.62
112-06-1	heptyl acetate	-547100	561.22
7787-32-8	barium fluoride	-803750	301.82
53731-24-1	3-fluoro-2-methyl-1-butene	-232280	364.17
66225-31-8	3,5-dimethyl-cis-2-hexene	-111300	430.59
124-25-4	tetradecanal	-414800	736.25
66225-37-4	4-methyl-1,5-hexanediol	-507200	496.74
7440-15-5	rhenium	769900	188.84
62016-60-8	1,trans-3-diethylcyclopentane	-188950	413.79
592-57-4	1,3-cyclohexadiene	106200	303.26
5910-75-8	ditridecylamine	-526500	1209.4
5932-79-6	4-nonanol	-386600	547.94
2346-81-8	3-chlorohexane	-188190	413.61
66256-42-6	2,2,5-trimethyl-4-heptanol	-421270	538.49
3017-70-7	2-bromo-3-methyl-2-butene	-22560	386.91
24768-43-2	propyl hexyl sulfide	-187150	572.67
95-47-6	o-xylene	19100	353.86
62199-28-4	2,3,4,6-tetramethyloctane	-300000	586.1
591-95-7	1,2-pentadiene	140700	335.09
36566-80-0	2-methyl-3-hexyne	74600	407.02
61868-96-0	2-methyl-4-propylheptane	-278600	559.69
512-56-1	trimethyl phosphate	-1080000	
62185-41-5	2,4-dimethyl-3-isopropylheptane	-272400	572.68
17302-23-7	4,5-dimethylnonane	-274200	571.43
66292-31-7	ethyl hexadecyl sulfide	-372500	923.07
45324-58-1	trieicosylamine	-1214200	2509.2
1838-73-9	3-methyl-4-heptanol	-371240	499.46
13478-45-0	niobium (V) bromide	-443590	449.2
1317-38-0	copper (II) oxide	306270	234.61
66455-45-6	cis-1-iodo-1-eicosene	-262040	984.08
13763-23-0	uranium (VI) chloride	-1013000	431
66576-26-9	2,3,4-trimethyl-2-pentanol	-379990	460.59
62184-79-6	1-tetradecylcyclopentene	-269000	
62016-64-2	1,cis-2-dimethyl-cis-4-ethylcyclopentane	-209290	371.43
66576-42-9	nonatriacontylamine	-814500	1726.7
26981-81-7	diethylheptylamine	-202840	600.56
62183-74-8	2,2,3,3-tetramethyloctane	-300200	550.55
103-29-7	1,2-diphenylethane	142880	474.01
62199-05-7	2,2,3-trimethyl-4-ethylheptane	-293000	568.66
822-20-8	heptadecyl acetate	-754200	954.44
17302-12-4	5-ethylnonane	-272500	575.12
66256-68-6	2,4,4,5-tetramethyl-3-hexanol	-426550	528.97
431-31-2	1,1,1,2,3-pentafluoropropane	-1099800	382.94
7311-30-0	methyldodecylamine	-258180	703.05
62127-72-4	1,1,1-tribromohexadecane	-303330	893.51
7440-01-9	neon	0	146.33
74-90-8	hydrogen cyanide	135140	201.83
2044-22-6	trinonylamine	-533080	1223.8
107-06-2	1,2-dichloroethane	-126800	306.08
92876-99-8	butyl ethyl sulfite	-593200	
1678-80-4	1,cis-2,cis-4-trimethylcyclohexane	-215450	391.36
584-03-2	1,2-butanediol	-445000	372.64
629-49-2	2-dodecyne	-18710	595.17
5582-82-1	3-methyl-3-heptanol	-369430	479.64
62016-54-0	nonadecylcyclopentane	-478210	1040.4
598-03-8	dipropyl sulfone	-468300	470.99
142-28-9	1,3-dichloropropane	-161500	367.68
507-25-5	carbon tetraiodide	267900	391.63
17312-43-5	4-ethyl-4-propylheptane	-292300	586.44
35551-81-6	dipentadecylamine	-609060	1365.2
581-40-8	2,3-dimethylnaphthalene	83550	412.01
13632-95-6	1-methyl-2,6-diethyl benzene	-51200	476.68
62126-93-6	1,3-difluoro-2-methylpropane	-523390	365.68
99-87-6	p-cymene	-29000	427.13
61869-00-9	4-methyl-4-isopropylheptane	-273100	534.2
20291-91-2	3-ethyl-2,2-dimethylhexane	-258950	505.95
66326-79-0	ethylnonadecylamine	-423300	1014.7
93-22-1	2-pentylnaphthalene	31670	540.77
540-84-1	2,2,4-trimethylpentane	-224000	423.11
62016-58-4	hexacosylcyclopentane	-622690	1313.1
105-34-0	methyl cyanoacetate	-237000	382.3
6006-15-1	diethylisopropylamine	-125560	435.23
111-29-5	1,5-pentanediol	-449000	434.33
594-82-1	2,2,3,3-tetramethylbutane	-225890	390.58
7550-35-8	lithium bromide	-153970	224.38
14676-29-0	3-ethyl-2-methylheptane	-253380	528.69
608-25-3	1,3-dihydroxy-2-methylbenzene	-305900	375.2
108-39-4	m-cresol	-132300	356.24
17059-44-8	1,2-dimethyl-3-propylbenzene	-46700	461.25
61828-12-4	heptacosylcyclohexane	-670130	1410.9
75-79-6	silane, methyltrichloro	-528860	351.14
2146-38-5	1-ethylcyclopentene	-19700	355.7
29703-52-4	2-eicosanone	-569600	969.83
112-82-3	1-bromohexadecane	-347240	830.29
66719-54-8	2,6-dimethyl-4-octanol	-417800	567.84
594-02-5	1,1-diiodoethane	66530	344.61
66703-00-2	3-iodo-2-methyl-1-butene	40700	388.1
4444-68-2	diethylbutylamine	-140920	483.7
62185-43-7	2,5-dimethyl-3-isopropylheptane	-293700	580.73
593-70-4	chlorofluoromethane	-265700	264.5
4730-22-7	6-methyl-2-heptanol	-371240	499.46
62183-95-3	2,2-dimethyl-3-ethyloctane	-293100	584.09
107-88-0	1,3-butanediol	-452000	343.83
95-73-8	3,4-xylenol	-156600	391.03
61868-34-6	3,4-dimethyl-3-ethylheptane	-270100	537.22
66688-69-5	1,2-difluoro-3-methylbutane	-549310	395.1
13151-04-7	5-methyl-1-heptene	-87200	457.18
66292-33-9	butyl tetradecyl sulfide	-373420	924.48
7550-45-0	titanium tetrachloride	-763160	354.85
595-42-6	2-nitro-2-methylbutane	-175100	498.67
7447-41-8	lithium chloride	-195720	212.92
7443-52-9	trans-2-methylcyclohexanol	-352600	391.84
2699-79-8	sulfuryl fluoride	-758560	283.63
66719-50-4	3,4-dimethyl-3-isopropyl-2-pentanol	-477080	526.99
25154-52-3	nonylphenol	-291000	674.49
2131-38-6	1,3,7-trimethylnaphthalene	57000	442.68
59643-75-3	2,3-dimethyl-cis-3-hexene	-111400	430.25
624-92-0	dimethyl disulfide	-23600	336.82