CAS	name	Hf(g)	S0(g)
3404-77-1	3,3-dimethyl-1-hexene	-94000	416.67
287-23-0	cyclobutane	28400	264.95
6570-88-3	2,3,4-trimethyl-1-pentanol	-376520	489.94
62168-11-0	1,1-dibromodotriacontane	-656430	1495
829-26-5	2,3,6-trimethylnaphthalene	57000	442.68
78-11-5	pentaerythritol tetranitrate	-386700	
106-35-4	3-heptanone	-301000	449.1
17194-00-2	barium hydroxide	-626560	315.55
62168-38-1	1,1-dibromoheneicosane	-429390	1066.6
2213-32-3	2,4-dimethyl-1-pentene	-80800	399.15
121-91-5	isophthalic acid	-696300	443.4
3899-36-3	3-methyl-trans-3-hexene	-83000	409.14
66292-48-6	cis-1-fluoro-1-octadecene	-493740	882.26
62185-38-0	2,2-dimethyl-4-isopropylheptane	-305400	567.65
765-04-8	1,11-undecanediol	-574830	686.26
66719-44-6	5-methyl-4-nonanol	-412520	577.37
13475-81-5	2,2,3,3-tetramethylhexane	-257860	486.46
13842-84-7	thorium (III) fluoride	-1166100	337.54
1003-38-9	2,5-dimethyltetrahydrofuran	-259030	245.63
3404-73-7	3,3-dimethyl-1-pentene	-73200	378.25
1712-64-7	isopropyl nitrate	-191000	373.92
62-76-0	sodium oxalate	-1318000	
629-58-3	pentadecyl acetate	-712800	875.79
605-01-6	pentaethylbenzene	-175180	649.78
91-62-3	6-methylquinoline	199190	336.74
24304-00-5	aluminum nitride	523000	228.58
2532-68-5	1,cis-2,trans-3,cis-4-tetramethylcyclopentane	-229630	329.07
626-87-9	1,4-dibromopentane	-99150	443.33
62184-60-5	2,3,8-trimethylnonane	-304900	596.16
3922-25-6	1,1,1-trichloroundecane	-327900	677.5
57-13-6	urea	-245800	
62184-75-2	1-decylcyclopentene	-185900	
10026-13-8	phosphorus pentachloride	-360180	364.3
42131-98-6	2-chloro-cis-2-pentene	-54840	373.45
31241-42-6	1-nitrotetradecane	-343050	781.63
10101-63-0	lead iodide	-3180	359.56
17302-28-2	2,6-dimethylnonane	-281500	569.08
14476-30-3	1,2,2-tribromopropane	-35010	387.13
6221-96-1	hexadecyl propanoate	-751500	954.77
66359-51-1	cis-1-bromo-1-nonadecene	-291940	940.56
691-38-3	4-methyl-cis-2-pentene	-57300	373.11
39924-57-7	cis-1-bromo-1-heptene	-44260	473.13
1560-97-0	2-methyldodecane	-316930	652.86
2532-64-1	1,cis-2,trans-3,trans-4-tetramethylcyclopentane	-229630	329.07
10043-92-2	radon	0	176.1
638-65-3	octadecanenitrile	-249970	863.25
62199-19-3	2,2,5,7-tetramethyloctane	-318900	568.66
66225-33-0	3-ethyl-2,4-pentanediol	-506000	508.95
28122-29-4	2',2"-dimethyldiphenylmethane	101000	527.88
590-01-2	butyl propanoate	-502600	482.25
20668-29-5	3,8-dimethylquinoline	167080	369.52
75-02-5	vinyl fluoride	-138900	262.27
6812-39-1	hexadecylcyclopentane	-416300	922.17
62184-06-9	2,4-dimethyl-6-ethyloctane	-303400	592.14
7783-30-4	mercurous iodide	133470	280.62
10036-47-2	tetrafluorohydrazine	-8370	301.2
629-97-0	docosane	-497410	1013
462-06-6	fluorobenzene	-116300	301.54
62108-93-4	1-fluorononatriacontane	-1044400	1706.8
66213-91-0	1,1-diiodononacosane	-493430	1387.3
61886-66-6	3-eicosyne	-183830	906.79
7239-24-9	dimethylisobutylamine	-98300	418.48
66213-77-2	1-fluoro-2-methyl-trans-2-butene	-235210	371.72
62184-57-0	2,3,5-trimethylnonane	-301800	599.18
24094-93-7	chromium nitride	505010	230.73
354-12-1	1,1,1-trichloro-2,2-difluoroethane	-538080	349.16
62199-40-0	2,5,6,6-tetramethyloctane	-304000	570.67
1560-93-6	2-methylpentadecane	-378850	769.71
26519-91-5	methylcyclopentadiene	100000	319.02
2050-92-2	dipentylamine	-196260	586.19
503-60-6	1-chloro-3-methyl-2-butene	-54840	373.45
106-94-5	1-bromopropane	-87000	330.68
61886-61-1	3-pentadecyne	-80630	712.03
62183-50-0	2,5-dimethyl-6-ethyloctane	-299200	589.45
120-51-4	benzyl benzoate	-191000	545.69
2131-41-1	1,4,5-trimethylnaphthalene	57000	442.68
61827-87-0	1,2,4-trimethyl-3-ethylbenzene	-52200	456.89
26423-63-2	4-chloro-cis-2-pentene	-50330	368.08
61828-17-9	dotriacontylcyclohexane	-773330	1605.7
96-33-3	methyl acrylate	-333000	366.32
627-21-4	2-pentyne	120700	304.97
62183-79-3	2,2,4,4-tetramethyloctane	-298500	561.28
13598-22-6	beryllium sulfide	263590	210.34
3404-71-5	2-ethyl-1-pentene	-76600	414.21
14167-59-0	tetratriacontane	-745090	1480.4
2189-60-8	octylbenzene	-96100	596.83
66553-33-I	1,1-diiodododecane	-142550	725.14
62154-92-1	trans-1-iodo-1-butene	68200	360.85
818-61-1	2-hydroxyethyl acrylate	-493000	449.96
56-86-0	l-glutamic acid	-824000	492.31
300-57-2	2-propenylbenzene	138000	412.76
13151-34-3	3-methyldecane	-275650	580.99
23009-74-7	1-chloro-2-methyl-cis-2-butene	-54840	373.45
106-98-9	1-butene	-500	307.88
66702-89-4	4-fluoro-cis-2-pentene	-230700	366.35
66719-29-7	2,4-diiodopentane	-3350	442.95
58795-24-7	5,6-dimethyl-2-heptanol	-397160	528.89
50-81-7	ascorbic acid	-951000	434.73
33933-77-6	7-methyl-4-octanol	-391880	538.41
66719-52-6	2,2-dimethyl-4-octanol	-415990	548.02
7525-62-4	m-ethylstyrene	100760	428.33
22037-73-6	3-bromo-1-butene	20590	348.73
106-36-5	propyl propanoate	-483100	442.76
61847-98-1	2-nonadecyne	-163190	867.84
13320-56-4	1,1-dibromopentane	-99150	443.33
372-54-3	2-fluorohexane	-368560	411.89
372-18-9	m-difluorobenzene	-310000	320.16
4914-92-5	3,4-dimethyl-trans-2-pentene	-85600	408.6
4458-31-5	diethylpropylamine	-120280	444.75
120-92-3	cyclopentanone	-192100	313.56
62108-49-0	1-bromotritriacontane	-698120	1492.5
61868-07-3	2,4-dimethylpentadecane	-404770	799.14
62185-16-4	2,4-dimethyl-3-ethyl-3-isopropylpentane	-225400	522.71
51750-65-3	2,2,4,4-tetramethylhexane	-257320	486.43
66587-66-4	2,3-diiodobutane	17290	404
13024-80-1	hexacosylbenzene	-467280	1296.1
62198-79-2	3,4,5-trimethyl-4-ethylheptane	-277300	568.99
7289-44-3	methyl undecyl sulfide	-245500	686.91
52356-93-1	cis-1-iodo-1-octene	-14360	516.66
66214-26-4	1,1-diiodotetratriacontane	-596630	1582.1
36668-55-0	cis-1-bromo-2-methyl-1-butene	-12770	391.07
66810-87-5	3,5,5-trimethyl-3-hexanol	-398820	479.72
62016-31-3	2,3,4-trimethyloctane	-275400	555.33
123-95-5	butyl stearate	-819270	1087
150-76-5	p-methoxyphenol	-249000	399.11
7440-19-9	samarium	206700	183.3
62184-04-7	2,4-dimethyl-4-ethyloctane	-297300	588.78
609-26-7	3-ethyl-2-methylpentane	-212800	443.91
62016-18-6	2-methyl-5-ethyloctane	-279400	567.74
7789-26-6	fluorine nitrate	10450	292.91
638-45-9	1-iodohexane	-90300	445.33
29664-53-7	methylpentadecylamine	-320100	819.91
19780-67-7	2-methyl-3-ethyl-2-pentene	-105500	470.53
4028-56-2	meso-2,3-dichlorobutane	-167930	359.6
66214-23-1	dimethylhentriacontylamine	-656920	1457.5
26438-28-8	1-dodecylnaphthalene	-124000	775
66688-32-2	1,4-diiodo-2-methylbutane	1930	452.47
1653-31-2	2-tridecanol	-469160	741.72
13709-52-9	hafnium fluoride	-1669800	
14130-08-6	tetracosylamine	-504900	1142.5
5451-92-3	nonyl formate	-531300	605.07
107-11-9	allylamine	58200	312.82
123-07-9	p-ethylphenol	-144050	391.13
62184-08-1	2,5-dimethyl-4-ethyloctane	-298400	593.14
66719-48-0	2,4-dimethyl-4-ethyl-3-hexanol	-421270	538.49
563-16-6	3,3-dimethylhexane	-220000	438.21
62016-33-5	2,3,6-trimethyloctane	-282000	561.7
66374-97-8	diethyleicosylamine	-471160	1106.9
61886-65-5	3-nonadecyne	-163190	867.84
872-50-4	N-methyl-2-pyrrolidone	-195390	338.97
62183-55-5	2,7-dimethyl-3-ethyloctane	-302200	592.47
10545-99-0	sulfur dichloride	-17570	281.63
1070-87-7	2,2,4,4-tetramethylpentane	-242300	431.07
62184-82-1	1,3-dimethylcyclopentene	-29700	361.41
142-62-1	hexanoic acid	-509000	456.84
56392-13-3	ethylpentadecylamine	-340740	858.86
10250-52-9	1,1-diiodopropane	43210	374.57
62199-79-5	2,2,3-trimethyl-3-isopropylhexane	-266300	545.52
62108-65-0	1,1,3-trichloro-2-methylpropane	-183670	393.03
1680-53-1	1-methyl-4-isopropylnaphthalene	51300	509.67
2882-96-4	3-methylpentadecane	-378850	769.71
66359-57-7	cis-1-iodo-1-nonadecene	-241400	945.13
80-43-3	dicumyl peroxide	-79400	667.97
999-78-0	4,4-dimethyl-2-pentyne	63600	379.52
107-19-7	propargyl alcohol	42200	293.28
2439-55-6	methyloctadecylamine	-382020	936.76
62185-21-1	3,4,5,6-tetramethyloctane	-291400	578.05
7440-60-0	holmium	300800	195.74
74-95-3	dibromomethane	-14800	293.33
554-14-3	2-methylthiophene	83500	320.98
66793-91-7	2,4,4-trimethyl-2-hexanol	-398820	479.72
1116-76-3	trioctylamine	-471160	1106.9
66291-89-2	diethyldocosylamine	-512440	1184.8
13470-14-9	tungsten (V) chloride	-412540	405.64
638-04-0	cis-1,3-dimethylcyclohexane	-184600	371.25
74-99-7	methylacetylene	184500	248.39
13768-94-0	silane, dibromo	-190370	310.04
123-91-1	1,4-dioxane	-315060	300.49
49557-09-7	2,5,8-trimethylnonane	-309100	595.16
6414-96-6	5,5-dimethylnonane	-282000	551.98
12232-99-4	sodium bismuthate	-648520	440.54
7515-62-0	5-bromo-trans-2-pentene	-2980	395.23
13465-73-1	silane, monobromo	-78240	262.46
19374-46-0	1,trans-2,cis-3-trimethylcyclopentane	-188650	332.48
50715-02-1	triacontylbenzene	-549840	1451.9
430-53-5	1,1-dichloro-2-fluoroethane	-317480	322.92
107-83-5	2-methylpentane	-174600	380.69
66225-53-4	2,4-dimethyl-2,3-pentanediol	-522200	436.91
4516-69-2	1,1,3-trimethylcyclopentane	-153070	444.37
66309-90-8	1,4-dimethyl-5-ethylnaphthalene	51300	509.67
66576-22-5	3-methyl-3-ethyl-2-pentanol	-374710	470.11
35866-96-7	2,4,4,7-tetramethyloctane	-309400	573.35
17760-40-6	1,1,1-trichlorohexane	-224800	479.05
3876-97-9	1,2,8-trimethylnaphthalene	57000	442.68
111-82-0	methyl dodecanoate	-612300	729.91
3698-95-1	methyl octyl sulfide	-183600	569.12
13637-63-3	chlorine pentafluoride	-238490	310.74
2613-72-1	1,cis-2,cis-4-trimethylcyclopentane	-188650	332.48
17312-77-5	2,3-dimethylundecane	-322210	643.33
1551-21-9	methyl isopropyl sulfide	-89300	363.69
14531-16-9	5-methyl-5-ethylnonane	-297500	593.81
62184-31-0	4,5,5-trimethylnonane	-297000	581.74
64245-25-6	cis-1-iodo-3-methyl-1-butene	42280	390.28
14055-76-6	molybdenum (IV) iodide	124680	452.9
62184-36-5	3-methyl-5-propyloctane	-297000	604.21
932-43-4	1-methyl-cis-2-propylcyclopentane	-188950	413.79
13494-80-9	tellurium	196700	182.52
624-29-3	cis-1,4-dimethylcyclohexane	-176600	370.92
66256-43-7	2,2,6-trimethyl-3-heptanol	-421270	538.49
44979-90-0	diethylhexylamine	-182200	561.61
591-93-5	1,4-pentadiene	105700	334.08
108-36-1	m-dibromobenzene	125500	365.84
51525-97-4	1,1,3,3-tetrabromopropane	-10490	458
590-67-0	1-methylcyclohexanol	-332000	375.85
24893-35-4	2,3-dimethyl-1,3-butanediol	-497400	403.72
64919-20-6	ethyl pentadecyl sulfide	-351920	884.05
1873-54-7	3-ethylquinoline	178550	375.69
123-99-9	azelaic acid	-927000	601.82
51200-81-8	2-methyl-3-isopropyl-3-hexanol	-471800	536.51
7727-37-9	nitrogen	0	191.61
1074-92-6	1-methyl-2-tert-butyl benzene	-48700	434.76
13402-60-3	2-decanethiol	-220400	602.23
565-59-3	2,3-dimethylpentane	-194100	415.15
26438-26-6	1-nonylnaphthalene	-47500	698.42
66142-64-1	trans-1-iodo-1-undecene	-76280	633.51
90-11-9	1-bromonaphthalene	182000	386.39
7379-12-6	2-methyl-3-hexanone	-305670	445.84
66794-02-3	2-methyl-3-ethyl-2-hexanol	-395350	509.07
66577-24-0	diethyldotriacontylamine	-718840	1574.4
514-10-3	abietic acid	-537000	649.76
1314-08-5	palladium (II) oxide	348900	217.32
66576-87-2	pentatriacontylamine	-731940	1570.9
111-26-2	hexylamine	-133300	443.23
603-35-0	triphenylphosphine	320200	
619-15-8	2,5-dinitrotoluene	-34000	
14310-20-4	4-methyl-1,2-diphenylethane	112300	533.49
105-37-3	ethyl propanoate	-463600	403.27
123-73-9	trans-crotonaldehyde	-104000	316.34
630-16-0	1,1,1,2-tetrabromoethane	11960	399.22
14753-05-0	1-chloro-2-methylpentane	-188190	413.61
61868-53-9	2,3,4,5-tetramethylheptane	-273700	541.58
66214-08-2	hentriacontylamine	-649380	1415.1
591-96-8	2,3-pentadiene	133100	329.38
12137-20-1	titanium (II) oxide	54390	233.44
6920-24-7	1,2-hexadecanediol	-683310	871.5
3772-13-2	2,2-dimethylthiacyclopropane	11590	
75-19-4	cyclopropane	53300	237.87
71-36-3	butanol	-274600	361.7
13718-50-8	barium iodide	-302920	348.66
565-78-6	3,4-dimethyl-2-pentanone	-310950	436.32
62108-45-6	1-bromopentacosane	-533000	1180.9
62212-28-6	3,4-dimethyl-3-ethyloctane	-290800	576.37
1003-17-4	2,2-dimethyltetrahydrofuran	-223450	357.52
88-72-2	o-nitrotoluene	45500	387.65
13154-13-7	trans-1-bromo-1-hexene	-23620	434.18
62185-46-0	3,3-dimethyl-4-isopropylheptane	-272100	568.32
3404-58-8	3-ethyl-1-hexene	-88600	452.49
2406-52-2	stannane	162800	227.01
23171-85-9	2,3,3-trimethyl-2-pentanol	-378180	440.77
359-28-4	1,1,2-trichloro-2-fluoroethane	-338500	346.82
61868-19-7	2-methyl-1-hexadecene	-278570	809.43
5277-11-2	dimethylheptylamine	-161560	522.66
62185-19-7	3,4,4,6-tetramethyloctane	-294700	577.71
598-53-8	methyl isopropyl ether	-252000	342.24
20843-07-6	3,4-dimethylfuran	-97900	336.61
1314-23-4	zirconium (IV) oxide	-286190	273.88
7642-09-3	cis-3-hexene	-47300	376.8
62016-63-1	1,cis-2-dimethyl-1-ethylcyclopentane	-173710	483.32
62184-24-1	3,4,6-trimethylnonane	-298800	602.2
822-01-5	1,1-dichloroundecane	-315800	662.15
62199-27-3	2,3,4,5-tetramethyloctane	-294200	579.39
24443-15-0	1,3-dibromo-3-methylbutane	-102620	413.98
4109-96-0	silane, dichloro	-320490	286.73
624-91-9	methyl nitrite	-63900	285.04
13456-23-0	1,1-diphenylhexadecane	-195000	
12504-41-5	silicon monosulfide	105960	223.79
12185-10-3	phosphorus (white)	58900	280.07
3457-57-6	1-nitro-2-methylbutane	-162570	421.53
111-69-3	adiponitrile	149500	400.59
766-90-5	cis-1-propenylbenzene	121300	385.09
26288-16-4	1,1,1-trifluorodecane	-846810	601.74
6920-22-5	1,2-hexanediol	-482700	462.55
28122-24-9	3-ethyldiphenylmethane	112300	533.49
1653-30-1	2-undecanol	-427880	664.35
32814-16-7	cis-1-fluoro-1-octene	-287340	492.73
21651-19-4	tin (II) oxide	15100	232.58
3710-43-8	2,4-dimethylfuran	-97900	336.61
7783-79-1	selenium hexafluoride	-1117000	315.41
822-27-5	dioctyl disulfide	-325000	884.97
590-87-4	2-fluoropentane	-347920	372.93
99-62-7	m-diisopropylbenzene	-77600	499.97
128-37-0	2,6-di-tert-butyl-p-cresol	-341000	1049.1
18283-93-7	tetraborane	66100	
7439-91-0	lanthanum	431000	182.44
75-11-6	diiodomethane	117600	309.58
110-88-3	trioxane	-465900	288.68
74-93-1	methyl mercaptan	-22600	255.22
565-80-0	2,4-dimethyl-3-pentanone	-311400	455.81
13776-62-0	trans-difluorodiazine	81170	262.66
7789-19-7	copper (II) fluoride	-266940	267.08
29559-52-2	1,1,2-trichloro-2-methylpropane	-187140	363.68
62126-90-3	1,2-difluoropropane	-553280	324.75
7758-89-6	cuprous chloride	91090	237.19
62199-68-2	2,3,3,4,6-pentamethylheptane	-298400	547.19
7727-18-6	vanadium oxytrichloride	-695600	344.75
61868-56-2	2,4,4,5-tetramethylheptane	-271400	522.13
62184-02-5	2,3-dimethyl-6-ethyloctane	-300500	594.15
112-05-0	nonanoic acid	-578000	550.83
7646-79-9	cobalt chloride	-93720	298.43
5458-33-3	undecyl propanoate	-648000	757.66
58-72-0	triphenylethylene	340000	583.35
2398-10-9	1,trans-3-dimethylcyclobutane	-36200	312.73
506-68-3	cyanogen bromide	186190	248.37
24356-00-1	3-chloro-1-pentene	-42120	370.06
66214-04-8	methylnonacosylamine	-609060	1365.2
62198-96-3	3-methyl-3,4-diethylheptane	-280200	580.06
1198-37-4	2,4-dimethylquinoline	167080	369.52
5454-09-1	decyl butanoate	-649600	758.33
66703-02-4	cis-1-iodo-1-pentene	47560	399.8
62185-23-3	2-methyl-4-tert-butylheptane	-299100	568.99
544-25-2	1,3,5-cycloheptatriene	180900	316.38
140-66-9	p-tert-octylphenol	-291000	568.26
100-52-7	benzaldehyde	-36800	335.9
61828-11-3	hexacosylcyclohexane	-649490	1372
637-97-8	2-iodopentane	-74940	396.86
98-83-9	alpha-methylstyrene	118700	372.34
62016-94-8	1-chloro-4-methylpentane	-188190	413.61
1455-21-6	nonyl mercaptan	-190800	572.47
61828-32-8	pentatriacontylbenzene	-653040	1646.6
66553-39-7	cis-1-bromo-1-dodecene	-147460	667.9
1312-41-0	indium antimonide	344300	
2177-47-1	2-methylindene	115000	361.98
79-34-5	1,1,2,2-tetrachloroethane	-149000	354.88
6915-15-7	malic acid	-990000	451.61
62198-93-0	2-methyl-4,4-diethylheptane	-292200	578.39
2370-13-0	2,2-dimethyl-1-hexanol	-369430	479.64
66256-69-7	3,3,5,5-tetramethyl-2-hexanol	-424740	509.14
1530-07-0	1,1-diphenyldecane	-51000	
111-70-6	1-heptanol	-336500	479.16
14411-75-7	1,3-dimethyl-2-isopropylbenzene	-45900	452.2
7784-35-2	arsenic trifluoride	-785800	288.88
1067-08-9	3-methyl-3-ethylpentane	-214900	424.45
66688-66-2	1,3-difluoro-2,2-dimethylpropane	-547500	375.28
62184-26-3	3,5,6-trimethylnonane	-298800	602.2
7440-02-0	nickel	430120	182.22
624-95-3	3,3-dimethyl-1-butanol	-335000	378.76
496-11-7	indane	60700	346.85
104-76-7	2-ethyl-1-hexanol	-365300	498.12
536-75-4	4-ethylpyridine	81500	359.13
463-82-1	neopentane	-167900	305.99
10496-18-1	didecyl disulfide	-408000	1041.6
2044-21-5	dinonylamine	-361380	897.81
4167-75-3	2-isobutylphenol	-195790	456.05
1127-76-0	1-ethylnaphthalene	96650	419.19
13320-71-3	molybdenum (IV) chloride	-384930	372.04
629-33-4	hexyl formate	-469000	487.28
1555-17-5	1-fluoropentadecane	-531300	781.21
62185-15-3	2,2,4-trimethyl-3,3-diethylpentane	-229100	522.37
66213-88-5	2-fluoro-trans-2-pentene	-235210	371.72
36555-73-4	diethylpentadecylamine	-367960	912.18
75-37-6	1,1-difluoroethane	-500800	282.78
15501-33-4	1-iodo-2,2-dimethylpropane	-78410	367.51
1074-43-7	1-methyl-3-propylbenzene	-24140	437.73
933-98-2	3-ethyl-o-xylene	-25650	421.93
66359-60-2	1,1-diiodononadecane	-287030	997.81
13873-84-2	iodine fluoride	-94760	236.3
111-41-1	N-aminoethyl ethanolamine	-191000	447.83
7188-38-7	tert-butyl isocyanide	40000	419.96
17302-26-0	4,6-dimethylnonane	-278400	566.06
16751-58-9	3-aminohexane	-141800	421.26
42067-49-2	4-methyl-3-ethyl-trans-2-pentene	-100300	467.48
62185-12-0	2,2,3,3,4,5-hexamethylhexane	-281800	528.41
121-44-8	triethylamine	-92700	403.65
2987-16-8	3,3-dimethylbutanal	-254700	392.3
563-80-4	methyl isopropyl ketone	-262600	371.13
66688-37-7	2,2-diiodopentane	-1540	423.13
98-87-3	benzyl dichloride	13000	386.31
556-67-2	octamethylcyclotetrasiloxane	-2110000	
1003-30-1	2-ethyltetrahydrofuran	-238690	287.99
75-33-2	isopropyl mercaptan	-75900	324.47
765-27-5	1-eicosyne	-165700	918.7
872-55-9	2-ethylthiophene	64900	361.14
13470-11-6	tungsten (V) bromide	-199160	461.36
66827-06-3	cis-1-fluoro-1-tetradecene	-411180	726.45
1795-15-9	octylcyclohexane	-296400	617.71
78-78-4	isopentane	-153700	343.89
50-00-0	formaldehyde	-108600	218.54
98-29-3	p-tert-butylcatechol	-376000	479.68
7440-69-9	bismuth	207100	187.17
108-55-4	glutaric anhydride	-349000	352.82
684-84-4	2-methyl-1,3-butanediol	-471000	401.8
2443-89-2	1,1-diiodo-2,2-dimethylpropane	-6820	413.6
71-41-0	1-pentanol	-300160	410.88
62198-97-4	3-methyl-3,5-diethylheptane	-293000	583.75
6163-66-2	di-tert-butyl ether	-364840	428.62
61868-33-5	3,3-dimethyl-5-ethylheptane	-277600	547.28
87-69-4	tartaric acid	-1160000	487.11
24308-61-0	2-iodo-1-butene	66620	358.67
581-42-0	2,6-dimethylnaphthalene	82510	409.79
593-32-8	2-octadecanol	-572360	935.13
2384-70-5	2-decyne	22570	517.27
4209-22-7	1-bromotriacontane	-636200	1375.6
591-22-0	3,5-dimethylpyridine	72800	356.44
4110-44-5	3,3-dimethyloctane	-262210	522.25
693-89-0	1-methylcyclopentene	-3700	326.28
98-07-7	benzotrichloride	-12340	401.92
123-38-6	propionaldehyde	-186000	304.56
4669-01-6	pentadecylcyclopentane	-395600	883.36
7440-47-3	chromium	397480	174.49
19287-45-7	diborane	41000	233.3
778-22-3	2,2-diphenylpropane	101900	456.78
628-73-9	hexanenitrile	-9600	403.91
504-15-4	1,3-dihydroxy-5-methylbenzene	-305900	375.2
17302-15-7	3,3-dimethylnonane	-282200	560.03
17302-04-4	4-ethyl-4-methylheptane	-256940	522.25
629-74-3	1-hexadecyne	-83000	761.75
4050-45-7	trans-2-hexene	-53300	383.84
5867-98-1	dipentyl sulfate	-879500	
10524-07-9	5-chloro-trans-2-pentene	-45050	377.6
123-08-0	p-hydroxybenzaldehyde	-213000	389.17
61847-90-3	1-triacontyne	-370630	1294.1
762-75-4	tert-butyl formate	-465100	372.41
62198-59-8	2,3,5-trimethyl-5-ethylheptane	-297600	577.04
1717-00-6	1,1-dichloro-1-fluoroethane	-339700	319
589-34-4	3-methylhexane	-191300	426.22
1839-88-9	1,cis-2,cis-3-trimethylcyclohexane	-215450	391.36
7647-15-6	sodium bromide	-143930	241.06
66359-38-4	1,3-nonadecanediol	-745230	988.35
5870-93-9	heptyl butanoate	-587400	640.2
124-18-5	decane	-249500	546.36
7784-42-1	arsine	66400	222.63
66374-77-4	trans-1-bromo-1-pentadecene	-209380	784.75
624-78-2	methylethylamine	-45200	335.6
4747-21-1	methylisopropylamine	-78800	339.27
7440-43-9	cadmium	111800	
52670-36-7	2,3,3,4,4,5-hexamethylhexane	-272500	519.36
1975-78-6	decanenitrile	-84850	551.63
628-77-3	1,5-diiodopentane	7210	462
108-44-1	m-toluidine	64000	355.1
100-51-6	benzyl alcohol	-100400	365.96
66455-61-6	trans-1-bromo-1-eicosene	-312580	979.51
629-50-5	tridecane	-311770	664.9
61868-88-0	2,2,3,4,5-pentamethylhexane	-276300	516.42
103-65-1	propylbenzene	7910	399.08