CAS	name	Hf(g)	S0(g)
13475-82-6	2,2,4,6,6-pentamethylheptane	-315580	542.73
1081-75-0	1,3-diphenylpropane	123700	539.42
62184-76-3	1-undecylcyclopentene	-206700	
16745-94-1	3,4-dimethyl-1-hexene	-93000	445.91
616-44-4	3-methylthiophene	82600	321.32
13400-13-0	cesium fluoride	-356480	243.29
66214-10-6	dimethylnonacosylamine	-615640	1379.6
5399-02-0	heptadecanenitrile	-229330	824.3
20687-01-8	1-iodo-2-methyl-1-propene	58410	356.69
62108-55-8	1-bromotetracontane	-842600	1765.1
7783-58-6	germanium (IV) fluoride	-1190200	301.84
19550-07-3	2,5-dimethyl-3-hexanol	-376520	489.94
4926-76-5	1-methyl-trans-3-ethylcyclohexane	-208000	390.48
26718-82-1	heneicosylcyclohexane	-546290	1177.2
110-56-5	1,4-dichlorobutane	-179000	389.42
6161-67-7	4-methyl-3-ethylphenol	-181340	420.46
7440-06-4	platinum	565300	191.86
66359-40-8	ethyl heptadecyl sulfide	-393130	962.26
106-67-2	4-methyl-2-ethyl-1-pentanol	-371240	499.46
62155-14-0	1,1-diphenyltridecane	-123000	
108-88-3	toluene	50200	321.08
62155-08-2	2-eicosanethiol	-426700	994.77
7705-07-9	titanium (III) chloride	-539320	316.86
6108-61-8	cis-2,cis-4-hexadiene	47400	357.13
62183-67-9	3,6-dimethyl-3-ethyloctane	-302200	588.11
62183-96-4	2,2-dimethyl-4-ethyloctane	-303500	583.75
4810-09-7	3-methyl-1-heptene	-90300	446.79
1617-32-9	trans-3-pentenoic acid	-369100	432.47
2384-85-2	3-decyne	22570	517.27
112-37-8	undecanoic acid	-619000	643.12
66577-39-7	1,2-dimethyl-7-ethylnaphthalene	51300	509.67
62126-98-1	1,1,1-trifluorotridecane	-908730	718.6
66256-50-6	3,5,5-trimethyl-3-heptanol	-419460	518.67
4628-21-1	1-chloro-cis-2-butene	-24410	338.65
66719-32-2	4,5-dimethyl-1-octanol	-412520	577.37
62184-56-9	2,3,4-trimethylnonane	-296100	594.49
89-83-8	5-methyl-2-isopropylphenol	-207260	449.88
628-29-5	methyl butyl sulfide	-101900	411.83
629-80-1	hexadecanal	-456400	814.56
66213-85-2	1-fluoro-cis-2-pentene	-225420	375.88
66374-78-5	cis-1-chloro-1-pentadecene	-251450	767.13
77-99-6	trimethylolpropane	-640190	489.26
20710-38-7	3-methyl-trans-2-hexene	-84500	404.11
354-56-3	pentachlorofluoroethane	-325100	392.53
1638-26-2	1,1-dimethylcyclopentane	-138200	359.6
5634-30-0	dodecylcyclopentane	-333600	766.23
20291-61-6	methyl heptyl sulfide	-163000	529.63
27911-72-4	tritetradecylamine	-842680	1808.1
661-53-0	2-fluoro-2-methylbutane	-351390	343.59
4773-83-5	1,2,3-trimethylindene	51700	415.81
13595-30-7	vanadium (IV) bromide	-336800	
66213-89-6	2-fluoro-1-pentene	-227000	373.7
4074-46-8	4-methyl-2-propylphenol	-201980	459.41
16136-84-8	cis-1-chloro-1-propene	-3770	299.7
431-06-1	1,2-dichloro-1,2-difluoroethane	-518870	345.09
62127-49-5	1,1,1,2-tetrabromopropane	-13960	428.65
110-74-7	propyl formate	-407600	368.47
4385-04-0	dimethylhexylamine	-140920	483.7
62127-60-0	2,2-dibromo-3-methylbutane	-107900	404.46
1115-08-8	3-methyl-1,4-pentadiene	78410	370.99
109-06-8	2-methylpyridine	99200	325.34
141-78-6	ethyl acetate	-444500	360.42
57757-60-5	dimethyl-1,1-dimethylpropylamine	-129030	405.88
66214-14-0	dotriacontylamine	-670020	1454.1
622-97-9	p-methylstyrene	114600	375.36
7783-68-8	niobium (V) fluoride	-1739700	321.68
591-80-0	4-pentenoic acid	-369200	406.58
1687-65-6	2-methyl-5-ethylphenol	-181340	420.46
140-31-8	N-aminoethyl piperazine	25100	450.37
75-88-7	2-chloro-1,1,1-trifluoroethane	-748100	326.46
1530-03-6	1,1-diphenylpropane	117000	692.63
62108-60-5	1,1,1-trichlorohexadecane	-431100	875.61
13475-79-1	2,4-dimethyl-3-isopropylpentane	-258030	487.7
57-57-8	beta-propiolactone	-297060	286.48
626-91-5	methyl 3-methylbutyl ether	-286800	420.89
54268-02-9	1,2,2,3-tetrabromopropane	-8680	438.17
2438-20-2	2-methylbutyl propanoate	-529900	516.7
16747-44-7	2,2,3,3,4-pentamethylpentane	-247190	473.41
15877-57-3	3-methylpentanal	-253500	414.04
62127-74-6	1,1,1-tribromooctadecane	-344610	971.41
106-63-8	isobutyl acrylate	-394000	476
358-03-2	3,3-difluoropentane	-547500	375.28
66577-19-3	3-methyl-2-propylnaphthalene	51300	509.67
13709-49-4	yttrium fluoride	-1288700	312.03
75-66-1	tert-butyl mercaptan	-109300	337.8
66577-15-9	4,6-dimethyl-1-ethylnaphthalene	51300	509.67
151-19-9	3,6-dimethyl-3-octanol	-415990	548.02
645-56-7	4-propylphenol	-169870	426.63
1310-82-3	rubidium hydroxide	-238000	248.39
62198-87-2	2,2,3,5,6-pentamethylheptane	-310100	558.26
13465-10-6	indium (I) chloride	-75000	
38514-03-3	4-methyl-1-octanol	-386600	547.94
2922-51-2	2-heptadecanone	-507600	851.7
66794-07-8	5-methyl-2-ethyl-1-hexanol	-391880	538.41
61868-08-4	2,4-dimethylhexadecane	-425410	838.09
109-69-3	1-chlorobutane	-147280	358.68
1636-44-8	4-ethyldecane	-293200	620.31
23412-45-5	molybdenum (IV) fluoride	-947680	329.04
4706-89-2	1,3-dimethyl-4-isopropylbenzene	-55600	462.6
20668-33-1	6,7-dimethylquinoline	167080	369.52
61868-40-4	2,2,3,3-tetramethylheptane	-279500	511.39
763-69-9	ethyl-3-ethoxypropionate	-633000	534.85
2211-68-9	2-chloro-trans-2-butene	-34200	334.49
592-49-4	2,3-hexadiene	112830	368.17
638-59-5	tetradecyl acetate	-692100	836.64
4276-50-0	1-bromoheneicosane	-450440	1025
55505-23-2	2,2,3-trimethyl-1-butanol	-354070	431.16
409-21-2	silicon carbide (hexagonal)	719650	213.03
62127-69-9	1,1,1-tribromododecane	-220770	737.7
571-61-9	1,5-dimethylnaphthalene	81800	402.21
1304-56-9	beryllium oxide	136400	197.69
2451-00-5	1-methyl-7-ethylnaphthalene	69000	456.09
52713-81-2	4-methyl-1-hexyne	93900	402.66
10049-14-6	uranium (IV) fluoride	-1598700	368.58
2400-66-0	eicosanal	-539500	971.51
13952-84-6	sec-butylamine	-104650	357.04
15331-16-5	1,1,2-tribromo-2-methylpropane	-60930	416.55
7440-20-2	scandium	377800	174.8
62184-99-0	2,2,3,4-tetramethyl-3-ethylhexane	-263400	538.47
66291-92-7	methylpentacosylamine	-526500	1209.4
3208-16-0	2-ethylfuran	-97900	304.31
38300-67-3	1,2,4-tribromobutane	-52180	455.43
630-01-3	hexacosane	-579970	1168.8
66576-52-1	dimethyloctatriacontylamine	-801400	1730.2
112-42-5	1-undecanol	-418400	636.44
61868-84-6	3,3,4-trimethyl-4-ethylhexane	-259700	517.1
121-17-5	4-chloro-3-nitrobenzotrifluoride	-634250	464.61
62127-04-2	1,1-difluoropentadecane	-769000	798.48
66688-75-3	trans-1-fluoro-1-nonene	-307980	531.69
4259-00-1	1,1,2-trimethylcyclopentane	-153070	444.37
148-24-3	8-hydroxyquinoline	21500	397.17
66793-76-8	ethylheptylamine	-175620	547.24
590-94-3	isobutyl isocyanide	40177	438.26
108-67-8	mesitylene	-15900	385.63
593-66-8	vinyl iodide	117690	284.92
17302-37-3	2,2-dimethyldecane	-308200	592.14
66553-41-1	cis-1-chloro-1-dodecene	-189530	650.27
16813-18-6	2-heptadecanol	-551720	896.45
2094-75-9	2,2-dimethylbutanal	-262100	367.48
14965-52-7	silane, trichlorofluoro	-840980	336.05
99-54-7	1,2-dichloro-4-nitrobenzene	14600	404.34
107-05-1	3-chloro-1-propene	-630	307.11
108-18-9	diisopropylamine	-138800	450.61
821-25-0	1,1-dichloroheptane	-233300	503.53
66793-83-7	7-methyl-2-octanol	-391880	538.41
62184-10-5	2,4,6-trimethylnonane	-305300	597.5
75-62-7	bromotrichloromethane	-38900	332.95
6785-23-5	undecylcyclopentane	-313000	727.08
62126-87-8	1,1-difluorooctatriacontane	-1241100	1636.6
21895-17-0	2',4"-dimethyldiphenylmethane	101000	527.88
66576-91-8	methyltetratriacontylamine	-712260	1560
52897-19-5	3-ethyl-2,3,4-trimethylpentane	-251420	496.26
14055-75-5	molybdenum (III) iodide	182840	403.62
590-73-8	2,2-dimethylhexane	-224600	432.84
7783-66-6	iodine pentafluoride	-840320	334.66
7440-74-6	indium	243300	173.85
538-68-1	pentylbenzene	-33900	479.7
109-65-9	1-bromobutane	-107320	370.41
52896-87-4	4-isopropylheptane	-251120	522.95
811-95-0	1,1,2-trichloro-1-fluoroethane	-336690	233.75
1795-04-6	2,3,4-trimethylthiophene	-1220	280.05
35866-89-8	2,6-dimethyl-4-isopropylheptane	-307600	570.67
111-68-2	heptylamine	-154000	482.72
7611-89-4	trans-1-chloro-2-methyl-1-butene	-54840	373.45
3180-09-4	2-butylphenol	-190510	465.58
31294-91-4	3-iodohexane	-95580	435.81
62155-04-8	2-tetradecanethiol	-302900	759.52
66702-97-4	1-iodo-2-methyl-cis-2-butene	37770	395.64
61828-02-2	1-methyl-cis-3-isopropylcyclopentane	-194230	404.27
62199-38-6	2,4,6,6-tetramethyloctane	-306400	578.72
2216-81-1	heptyl propanoate	-565100	600.38
79-00-5	1,1,2-trichloroethane	-145600	332.83
61868-22-2	2,3-dimethyl-4-ethylheptane	-272700	551.31
26533-31-3	2-methyl-4-nonanol	-412520	577.37
89-05-4	pyromellitic acid	-1480000	632.78
821-88-5	1,1-dichlorononane	-274500	583.18
88736-68-9	1,2-dimethylpropyl butanoate	-565900	539.09
16746-85-3	4-ethyl-1-hexene	-86900	458.19
62016-83-5	1-chlorohentriacontane	-694890	1410.4
53543-44-5	5-chloro-cis-2-pentene	-45050	377.6
1002-43-3	3-methylundecane	-295500	622.99
112-12-9	2-undecanone	-383600	615.44
61827-86-9	1,2,3-trimethyl-4-ethylbenzene	-52900	456.56
15918-08-8	2-propyl-1-pentene	-92810	458.86
143-15-7	1-bromododecane	-264680	674.48
765-10-6	1-tetradecyne	-41700	683.11
53045-71-9	3-bromo-1-pentene	-50	387.68
371-64-2	1-fluoro-3,3-dimethylbutane	-373840	402.36
811-97-2	1,1,1,2-tetrafluoroethane	-907100	317.32
1070-78-6	1,1,1,3-tetrachloropropane	-176960	367.67
112-55-0	1-dodecanethiol	-253200	690.27
3121-82-2	2,2-dimethyl-1,5-pentanediol	-502000	488.29
62185-08-4	2,3,3,5-tetramethyl-4-ethylhexane	-267300	547.19
818-92-8	3-fluoro-1-propene	-175930	299.95
629-20-9	1,3,5,7-cyclooctatetraene	298030	327.55
565-77-5	2,3,4-trimethyl-2-pentene	-109100	466.64
18835-35-3	1-nonacosene	-516460	1281
638-28-8	2-chlorohexane	-188190	413.61
2532-58-3	cis-1,3-dimethylcyclopentane	-135900	366.65
13760-02-6	silane, diiodo	-38070	326.79
594-51-4	2,3-dibromo-2-methylbutane	-138910	300.45
54166-32-4	2,6,6-trimethyloctane	-289100	546.61
62168-18-7	1,1-dibromononatriacontane	-800910	1767.7
108-08-7	2,4-dimethylpentane	-201700	397.38
52254-38-3	2-methyl-1-tetradecene	-237290	731.53
625-80-9	diisopropyl sulfide	-141100	415.77
60302-28-5	2,2-dimethyl-3,3-diethylpentane	-242100	502.34
111-34-2	butyl vinyl ether	-183000	428.73
20487-40-5	tert-butyl propanoate	-521700	479.9
40117-45-1	2,2,6,6-tetramethylheptane	-305000	507.37
59570-04-6	ethylundecylamine	-258180	703.05
646-31-1	tetracosane	-538690	1090.9
62183-81-7	2,2,4,6-tetramethyloctane	-309500	576.37
66688-60-6	3-iodo-trans-2-pentene	37770	395.64
62199-71-7	2,3,4,4,6-pentamethylheptane	-292000	561.62
1310-73-2	sodium hydroxide	-197760	228.29
66271-53-2	2-hexadecanethiol	-344200	837.82
13637-68-8	molybdenum (VI) dioxydichloride	-633040	337.89
75-46-7	fluoroform	-693300	259.55
24319-05-2	3-iodo-3-methylpentane	-99050	406.46
10026-11-6	zirconium chloride	-869980	367.85
17302-18-0	4,4-dimethylnonane	-282000	558.01
53268-67-0	trans-1-chloro-1-heptene	-86330	455.51
100-01-6	p-nitroaniline	59500	378.83
10486-19-8	1-tridecanal	-394100	696.76
59104-79-9	1,1-dibromoheptane	-140430	521.24
108-95-2	phenol	-96400	314.73
10025-82-8	indium (III) chloride	-374000	
102-71-6	triethanolamine	-562080	538.82
2345-27-9	2-tetradecanone	-445600	733.57
620-47-3	3-methyldiphenylmethane	133100	495.07
17312-80-0	2,4-dimethylundecane	-322210	643.33
526-73-8	1,2,3-trimethylbenzene	-9500	384.62
620-83-7	4-methyldiphenylmethane	133100	495.07
62127-43-9	1,1-difluorodecane	-665800	600.36
62126-77-6	3,5-dimethyl-4-ethylphenol	-213450	453.24
430-44-4	2-fluoro-1-butene	-206360	334.75
62199-17-1	2,3,3-trimethyl-5-ethylheptane	-295700	570.67
5750-00-5	2-chloro-3,3-dimethylbutane	-196940	374.74
3675-68-1	1,1,2-tribromobutane	-57460	445.9
26981-98-6	7-methyl-4-nonanol	-412520	577.37
2719-52-0	2-phenylpentane	-37600	467.63
101-68-8	diphenylmethane-4,4'-diisocyanate	-55800	
75-28-5	isobutane	-135000	295.34
14850-23-8	trans-4-octene	-94500	459.13
544-85-4	dotriacontane	-703810	1402.5
17312-51-5	2,7-dimethyldecane	-302200	608.24
116-15-4	hexafluoropropylene	-1080000	491.77
62198-62-3	2,3,6-trimethyl-5-ethylheptane	-301800	583.08
62016-59-5	1,cis-3-diethylcyclopentane	-188950	413.79
100-42-5	styrene	148300	344.93
575-43-9	1,6-dimethylnaphthalene	82510	410.5
7783-81-5	uranium fluoride	-2147400	377.84
61868-06-2	2,4-dimethyltetradecane	-384130	760.19
2234-20-0	1-ethenyl-2,4-dimethylbenzene	89290	422.16
41051-72-3	2-methyl-1,2-butanediol	-480000	345.72
66291-42-7	cis-1-fluoro-1-pentadecene	-431820	765.4
66291-75-6	diethyltetracosylamine	-553720	1262.8
53119-51-0	2-methyl-3-ethylthiophene	30890	383.69
62184-25-2	3,5,5-trimethylnonane	-300200	591.8
62127-65-5	1,1,1-tribromooctane	-138210	581.89
7791-21-1	chlorine monoxide	81000	271.72
591-50-4	iodobenzene	162500	334.35
61847-87-8	1-heptacosyne	-308710	1177.2
4445-07-2	octadecylbenzene	-302160	984.44
27563-68-4	methyl hexadecyl sulfide	-348700	882.68
624-48-6	dimethyl maleate	-620800	499.91
2051-33-4	5-methyl-2-isopropyl-1-hexanol	-417800	567.84
100-46-9	benzylamine	62230	359.23
109-92-2	ethyl vinyl ether	-140900	349.51
102-36-3	3,4-dichlorophenyl isocyanate	-2970	406.55
629-63-0	tetradecanenitrile	-167410	707.44
1790-22-3	1,2,4-trichlorobutane	-178390	402.55
66326-18-9	diethylheptadecylamine	-409240	990.08
14779-92-1	8-methyl-2-nonanol	-412520	577.37
6876-18-2	2-methyl-3-isopropylheptane	-269100	549.97
111-31-9	hexyl mercaptan	-129200	455.01
1530-06-9	1,1-diphenyloctane	-3000	
7783-59-7	lead (IV) fluoride	-1133450	333.62
5161-75-1	2,2-dimethylthiacyclopentane	-94800	
66688-55-9	1,3-diiodo-3-methylbutane	-1540	423.13
19484-26-5	1-tridecanethiol	-273800	729.42
78-83-1	isobutanol	-282920	349.92
7783-40-6	magnesium fluoride	-726760	256.51
1740-97-2	2-methyl-4-isopropylphenol	-207260	449.88
760-23-6	3,4-dichloro-1-butene	-64400	371.44
504-64-3	carbon suboxide	-93640	276.07
594-36-5	2-chloro-2-methylbutane	-202300	366.61
61868-24-4	2,4-dimethyl-3-ethylheptane	-266100	558.69
616-13-7	1-chloro-2-methylbutane	-179000	336.26
88-69-7	2-isopropylphenol	-175150	417.1
112-53-8	1-dodecanol	-436500	675.6
31950-56-8	4-bromo-1-pentene	-50	387.68
16747-25-4	2,2,3-trimethylhexane	-241210	467.2
7154-79-2	2,2,3,3-tetramethylpentane	-237100	437.11
61868-67-5	2-methyl-3,3-diethylhexane	-259700	543.59
7440-36-0	antimony	262300	180.53
78-87-5	1,2-dichloropropane	-165690	355.3
5161-79-5	2,cis-4-dimethylthiacyclopentane	-82700	
644-35-9	2-propylphenol	-169870	426.63
557-17-5	methyl propyl ether	-237900	352.64
66688-51-5	1,1-diiodo-3-methylbutane	-3350	442.95
2787-43-1	3-methyl-1,trans-3-pentadiene	65690	374.37
60836-07-9	2,4,6-trimethyl-4-heptanol	-421270	538.49
2980-71-4	2-methyl-1-nonene	-134090	536.76
103-30-0	trans-stilbene	241000	458.6
62017-34-9	1,1-dichlorodotriacontane	-740570	1459.8
62198-65-6	2,4,5-trimethyl-3-ethylheptane	-285100	584.42
61868-57-3	2,4,4,6-tetramethylheptane	-281600	530.85
17302-14-6	2,2-dimethylnonane	-287600	552.65
108-57-6	m-divinylbenzene	212000	412.56
1687-61-2	3-methyl-6-ethylphenol	-181340	420.46
20395-25-9	1,1,3-trichloropropane	-157750	363.6
112-57-2	tetraethylenepentamine	12600	684.55
62184-94-5	2,5-dimethyl-3,3-diethylhexane	-280200	572.35
66827-04-1	cis-1-chloro-1-tetradecene	-230810	728.18
870-63-3	1-bromo-3-methyl-2-butene	-12770	391.07
2917-26-2	1-hexadecanethiol	-335700	847.21
7440-53-1	europium	175300	188.82
66553-44-4	trans-1-fluoro-1-dodecene	-369900	648.54
2313-61-3	4-methyl-2-hexanol	-350600	460.51
62108-53-6	1-bromooctatriacontane	-801320	1687.2
66827-08-5	cis-1-iodo-1-tetradecene	-138200	750.37
66324-50-3	cis-1-bromo-1-tridecene	-168100	706.85
62199-77-3	2-methyl-3-ethyl-3-isopropylhexane	-258700	558.93
62168-32-5	1,1-dibromopentadecane	-305550	832.86
30749-25-8	3-isobutylphenol	-195790	456.05
5161-78-4	2,trans-3-dimethylthiacyclopentane	-90300	
4920-99-4	1-ethyl-3-isopropylbenzene	-47700	467.29
66256-60-8	6-methyl-2-nonanol	-412520	577.37
17302-32-8	3,7-dimethylnonane	-279400	569.75
1551-32-2	2-ethylthiacyclopentane	-84600	
3850-30-4	2-amino-3,3-dimethyl butane	-153100	373.84
149-31-5	2-methyl-1,3-pentanediol	-484400	465.03
62155-12-8	methyl nonadecyl sulfide	-410600	1000.5
66213-75-0	trans-1-fluoro-3-methyl-1-butene	-230700	366.35
10192-32-2	1-tetracosene	-413260	1086.3
66172-73-4	cis-1-chloro-1-undecene	-168890	611.32
22768-18-9	3-methyl-trans-3-heptene	-105300	442.53
62108-95-6	2-fluoro-3-methylbutane	-353200	363.41
1074-17-5	1-methyl-2-propylbenzene	-19780	432.9
17352-32-8	nonadecanal	-518700	932.36
23068-95-3	4-bromo-trans-2-pentene	-8260	385.7
66291-48-3	trans-1-chloro-1-decene	-148250	572.37
59973-08-9	ethyl nonyl sulfide	-228240	649.43
826-77-7	4,6-dimethylquinoline	167080	369.52
7596-92-1	1-bromodotriacontane	-677480	1453.5
66292-29-3	pentadecyl propanoate	-730800	915.28
66455-50-3	1-nitroeicosane	-466890	1015.3
100-60-7	N-methylcyclohexylamine	-103000	378.2
7440-57-5	gold	366100	180.89
19549-77-0	2,4-dimethyl-4-heptanol	-395350	509.07
7415-31-8	1,3-dichloro-trans-2-butene	-79000	353.46
15232-76-5	3-octyne	63850	439.37
10043-11-5	boron nitride	476980	212.42
49598-54-1	2,2-dimethyldodecane	-341040	662.46
7782-42-5	graphite	716670	158.1
61868-28-8	2,5-dimethyl-4-ethylheptane	-277900	555.33
15869-95-1	4,4-dimethyloctane	-262210	522.25
1518-75-8	3-propylthiophene	42360	389.86
589-93-5	2,5-dimethylpyridine	66400	362.15
3518-51-2	butyl methyl sulfate	-762700	
7664-93-9	sulfuric acid	-735130	298.8
14255-23-3	2,4-dimethyl-2-hexene	-108100	441.32
814-78-8	methyl isopropenyl ketone	-180000	360.52
66793-86-0	2,3,3,4-tetramethyl-2-pentanol	-404100	470.19
544-63-8	tetradecanoic acid	-681000	796.9
3452-07-1	1-eicosene	-331300	936.01
7791-25-5	sulfuryl chloride	-354800	311.1
7440-10-0	praseodymium	355600	189.38
52896-95-4	2,3,4-trimethylheptane	-255680	518.59
66688-59-3	2-iodo-1-pentene	45980	397.62
61868-48-2	2,2,5,6-tetramethylheptane	-294700	530.85
24319-09-3	2-chloro-3-methylpentane	-193470	404.09
61868-93-7	2,2,3,4-tetramethyl-3-ethylpentane	-245800	499.32
928-50-7	5-chloro-1-pentene	-36840	379.58
110-91-8	morpholine	-156000	232.51
62184-77-4	1-dodecylcyclopentene	-227500	
822-13-9	1-chlorotridecane	-334890	670.65
625-74-1	1-nitro-2-methylpropane	-141930	382.58
1795-01-3	3-ethylthiophene	62900	361.14
694-35-9	3-ethylcyclopentene	-8100	394.61
926-82-9	3,5-dimethylheptane	-238900	487.76
62183-86-2	2-methyl-4-isopropyloctane	-301300	590.46
3071-00-9	dieicosylamine	-815460	1754.8
926-41-0	neopentyl acetate	-522400	452.73
64-18-6	formic acid	-378600	249
535-77-3	m-cymene	-30900	432.16
101-81-5	diphenylmethane	164580	437.64
62016-38-0	2,4,7-trimethyloctane	-287800	555
112-71-0	1-bromotetradecane	-305960	752.38
993-07-7	trimethyl silane	-156610	331.56
61868-97-1	3-methyl-4-propylheptane	-271500	561.7
2219-78-5	3,4-dimethyl-6-ethylphenol	-213450	453.24
79-27-6	1,1,2,2-tetrabromoethane	10880	400.23
406-82-6	1,1,1-trifluoropentane	-743610	406.98
820-55-3	1,1-dichloropentane	-192000	424.22
2837-89-0	2-chloro-1,1,1,2-tetrafluoroethane	-924700	349.43
1305-78-8	calcium oxide	43930	219.72
62016-55-1	docosylcyclopentane	-540130	1157.3
623-37-0	3-hexanol	-331500	408.21
26143-08-8	trans-1-iodo-1-nonene	-35000	555.61
62185-01-7	2,2,3,5-tetramethyl-3-ethylhexane	-263400	538.47
111-15-9	2-ethoxyethyl acetate	-611000	492.34
26185-83-1	1-tetratriacontyne	-453190	1449.9
62168-10-9	1,1-dibromohentriacontane	-635790	1456.1
6094-02-6	2-methyl-1-hexene	-77900	400.69
1314-96-1	strontium sulfide	108200	239.41
15340-96-2	3,7-dimethyl-2-octanol	-417800	567.84
120-72-9	indole	156600	328.44
2190-48-9	3-chloro-3-methyl-1-butene	-45590	340.71
18437-89-3	butyl hexadecyl sulfide	-414630	1002.7
2004-70-8	trans-1,3-pentadiene	75800	315.97
61827-85-8	1,3-dimethyl-4-propylbenzene	-52700	476.68
14280-53-6	indium (I) bromide	-56900	259.35
62016-34-6	2,3,7-trimethyloctane	-284300	556.67
817-46-9	2-propyl-1-hexanol	-386600	547.94
13362-52-2	1,13-tridecanediol	-616110	764.16
817-60-7	2-ethyl-1-heptanol	-386600	547.94
124-07-2	octanoic acid	-556000	521.73
106-42-3	p-xylene	18000	352.18
1878-18-8	2-methyl-1-butanethiol	-114700	410.49
628-63-7	pentyl acetate	-505500	482.58
65822-93-7	2,4-dimethyl-2-heptanol	-395350	509.07
66292-44-2	cis-1-bromo-1-octadecene	-271300	901.61
822-50-4	trans-1,2-dimethylcyclopentane	-136600	366.98
13965-73-6	diborane, tetrafluoro	-1431760	318.61
7440-14-4	radium	159000	168.27
61847-80-1	4-methyl-3-ethyl-1-pentene	-93900	442.89
661-11-0	1-fluoroheptane	-366300	463.62
7667-60-9	1,trans-2,trans-4-trimethylcyclohexane	-215450	391.36
62127-15-5	1,1-difluorohexacosane	-995100	1163.5
13453-69-5	lithium metaborate	-646850	274.84
75-07-0	acetaldehyde	-166200	264.06
12007-33-9	boron sulfide	67000	