CAS	name	Hf(g)	S0(g)
66688-46-8	2,3-difluoropentane	-549310	395.1
598-61-8	methylcyclobutane	-6800	295.05
66359-84-0	1,1-diiodopentacosane	-410870	1231.5
108-48-5	2,6-dimethylpyridine	58700	356.11
42007-73-8	2,7-dimethyl-2-octanol	-415990	548.02
151-67-7	halothane	-705000	366.27
18720-62-2	2-methyl-3-heptanol	-371240	499.46
4850-32-2	sec-butylcyclopentane	-173890	446.63
24556-56-7	2-iodo-3,3-dimethylbutane	-104330	396.94
61868-95-9	4,4,5-trimethyloctane	-276300	542.25
62199-64-8	2,2,4,5,6-pentamethylheptane	-306400	557.93
16747-32-3	2,2-dimethyl-3-ethylpentane	-231300	461.6
50-21-5	lactic acid	-621000	364.82
62017-23-6	1,1-dichloroheneicosane	-513530	1031.3
619-99-8	3-ethylhexane	-210700	458
95-15-8	benzothiophene	166300	212.76
62016-15-3	4-isopropyloctane	-274400	565.06
3302-16-7	3,3-dimethylbutanenitrile	-26400	365.34
1446-61-3	dehydroabietylamine	-123000	525.6
78-90-0	1,2-propanediamine	-53680	360.77
62016-66-4	1,trans-2-dimethyl-cis-4-ethylcyclopentane	-209290	371.43
61868-70-0	3-methyl-3,4-diethylhexane	-259800	536.21
1078-71-3	heptylbenzene	-75300	558.01
66688-64-0	5-iodo-cis-2-pentene	47560	399.8
74-31-7	N,N'-diphenyl-p-phenylenediamine	321000	525.34
7447-40-7	potassium chloride	-214680	239.1
108-86-1	bromobenzene	104200	324.89
5161-11-5	3,cis-4-dimethylthiacyclopentane	-82100	
56298-90-9	4-methyl-2-heptanol	-371240	499.46
7399-49-7	1-methyl-2-(1-methylethenyl)benzene	81340	379.23
630-03-5	nonacosane	-641890	1285.6
13450-95-8	germanium (IV) iodide	-56900	429.06
2131-43-3	1,2,5,6-tetramethylnaphthalene	51300	509.67
66779-42-4	3-methyl-5-nonanol	-412520	577.37
62017-27-0	1,1-dichloropentacosane	-596090	1187.1
20592-10-3	2-ethyl-1-octanol	-407240	586.89
13818-89-8	digermane	162300	
18441-56-0	2-methyl-4-propylphenol	-201980	459.41
112-40-3	dodecane	-290830	625.21
75-35-4	1,1-dichloroethylene	2400	288.1
66553-53-5	methylundecylamine	-237540	664.1
123-51-3	3-methyl-1-butanol	-300410	394.1
527-53-7	1,2,3,5-tetramethylbenzene	-44700	424.11
62198-75-8	3,3,5-trimethyl-5-ethylheptane	-288000	567.65
1599-68-4	1-heneicosene	-351340	969.4
7440-26-8	technetium	678000	
338-64-7	1-chloro-1,2-difluoroethane	-497850	321.19
51200-83-0	2,4-dimethyl-3-isopropyl-3-pentanol	-477080	526.99
13598-42-0	silane, iodo	-2090	271.01
7440-03-1	niobium	733040	186.2
352-32-9	p-fluorotoluene	-147500	339.02
66688-35-5	1,1-diiodopentane	1930	452.47
7719-90-6	N-heptahexacontane	-1426200	2765.8
66576-50-9	tetracontylamine	-835140	1765.7
61868-78-8	2,3,3-trimethyl-4-ethylhexane	-261100	521.12
2203-80-7	5-methyl-1-hexyne	93700	395.28
66324-56-9	cis-1-iodo-1-tridecene	-117560	711.42
565-63-9	cis-2-methyl-2-butenoic acid	-389200	393.73
62108-63-8	1,1,1-trichlorononadecane	-493000	994.75
118-96-7	2,4,6-trinitrotoluene	-67100	
629-41-4	1,8-octanediol	-512910	569.4
111-65-9	octane	-208800	467.05
141-97-9	ethylacetoacetate	-560000	485.76
61847-78-7	2,4-dimethyl-trans-3-hexene	-108500	439.98
62168-09-6	1,1-dibromotriacontane	-615150	1417.1
33933-79-8	2,4-dimethyl-4-octanol	-415990	548.02
53939-51-8	nonadecyl acetate	-795600	1033.1
61868-98-2	2-methyl-4-isopropylheptane	-280700	550.97
2807-30-9	ethylene glycol monopropyl ether	-421000	437.69
75-18-3	dimethyl sulfide	-37200	285.98
62198-71-4	2,5,5-trimethyl-4-ethylheptane	-292800	573.69
593-75-9	methyl isocyanide	150210	474.58
589-40-2	sec-butyl formate	-445400	405.28
66455-43-4	trans-1-fluoro-1-eicosene	-535020	960.16
135-01-3	o-diethylbenzene	-15730	435.75
5867-94-7	ethyl propyl sulfate	-775600	
66793-99-5	2,2-dimethyl-4-heptanol	-395350	509.07
615-29-2	4-methyl-3-hexanol	-350600	460.51
66326-05-4	1,1-diiododocosane	-348950	1114.7
13373-83-6	octadecyl butanoate	-815100	1073.2
354-21-2	1,2,2-trichloro-1,1-difluoroethane	-538080	349.16
62127-71-3	1,1,1-tribromopentadecane	-282690	854.55
506-05-8	1-fluoroundecane	-448800	622.24
126-99-8	chloroprene	27400	313.29
61869-06-5	2,2-dimethyloctadecane	-464880	896.18
5617-41-4	heptylcyclohexane	-275700	577.25
17312-40-2	4-methyl-4-ethylnonane	-297500	599.52
51872-48-1	3-bromo-2-methyl-1-butene	-9840	383.52
30310-22-6	2-bromo-4-methylpentane	-151400	421.71
52896-92-1	2,2,3-trimethylheptane	-261830	505.98
18938-47-1	3-methyl-3,4-hexanediol	-521800	430.06
296-56-0	cycloeicosane	-467710	
7803-52-3	stibine	145100	232.66
31294-98-1	1-iodo-2,2-dimethylbutane	-95580	435.81
62154-74-9	3-iodo-1-butene	71130	353.3
5161-13-7	2,cis-5-dimethylthiacyclopentane	-83100	
42202-42-6	2-nitro-3-methylpentane	-188490	450.96
15679-02-4	1,trans-2-dimethylcyclobutane	-15500	382.16
13499-05-3	hafnium (IV) chloride	-884500	
13286-90-3	5-methyl-2-thiahexane	-129700	444.54
62184-42-3	3-methyl-5-ethylnonane	-297200	611.26
926-54-5	2-methyl-1,trans-3-pentadiene	65690	374.37
14075-53-7	potassium fluoroborate	-1552260	315.47
66374-76-3	cis-1-bromo-1-pentadecene	-209380	784.75
700-12-9	pentamethylbenzene	-61200	444.82
1653-17-4	1,1,3,3-tetrachloropropane	-178770	387.5
78-30-8	tri-o-cresyl phosphate	-851000	
13632-93-4	1-methyl-2,3-diethylbenzene	-42000	461.25
7786-30-3	magnesium chloride	-392460	277.03
61869-02-1	3,5-diethylheptane	-274600	555
123-54-6	acetylacetone	-380000	404.4
79-41-4	methacrylic acid	-361800	351.9
13824-36-7	silane, difluoro	-790780	262.12
42217-03-8	1-chlorodocosane	-514890	1040.5
62127-24-6	1,1-difluoropentatriacontane	-1179600	1518.3
62185-00-6	2,2,3,4-tetramethyl-4-ethylhexane	-276700	536.13
110-99-6	diglycolic acid	-945000	441.55
1630-78-0	trans-1,2-difluoroethene	-322200	268.14
19781-27-2	6-ethyl-3-octanol	-412520	577.37
1628-00-2	2-heptanethiol	-158500	484.44
67-68-5	dimethyl sulfoxide	-209160	224.65
17179-41-8	1-methyl-3-ethylnaphthalene	69000	456.09
112-62-9	methyl oleate	-626000	959.26
62017-41-8	1,1-dichlorononatriacontane	-885050	1732.5
61828-21-5	hexatriacontylcyclohexane	-855890	1761.5
115-10-6	dimethyl ether	-184100	267.29
62168-25-6	1,1-dibromobutane	-78510	404.38
66374-98-9	ethyldocosylamine	-485220	1131.5
62183-61-3	3,4-dimethyl-5-ethyloctane	-290400	593.48
16538-47-9	cis-1-iodo-1-hexene	26920	438.75
143-13-5	nonyl acetate	-588600	639.87
62198-55-4	2,3,4-trimethyl-4-ethylheptane	-285900	570.34
600-36-2	2,4-dimethyl-3-pentanol	-355880	450.98
62184-29-6	4,4,5-trimethylnonane	-297000	581.74
66271-82-7	propyl dodecyl sulfide	-310830	807.26
7357-93-9	3-methyl-2-ethyl-1-butene	-81100	398.14
594-27-4	tetramethyltin	-18800	
66719-30-0	3,4-dimethyl-4-octanol	-415990	548.02
597-77-3	5-methyl-3-ethyl-3-hexanol	-395350	509.07
638-11-9	isopropyl butanoate	-521500	473.19
76-22-2	camphor	-257000	392.07
14979-39-6	4-methyl-3-heptanol	-371240	499.46
111-49-9	hexamethyleneimine	-34180	357.29
15831-18-2	vanadium tetraiodide	-122590	
999-97-3	hexamethyldisilazane	-476600	
14596-92-0	1,cis-3-hexadiene	75480	378.53
65591-14-2	eicosyl propanoate	-834200	1112.4
66576-31-6	5,5-dimethyl-3-hexanol	-374710	470.11
353-36-6	ethyl fluoride	-264400	265.17
583-61-9	2,3-dimethylpyridine	68300	357.45
95-54-5	o-phenylenediamine	91200	360.37
62108-88-7	1-fluorotetratriacontane	-941200	1512.1
66793-74-6	3,4,4-trimethyl-3-hexanol	-398820	479.72
5813-64-9	2,2-dimethylpropylamine	-112700	392.98
507-45-9	2,3-dichloro-2-methylbutane	-192040	369.21
7094-27-1	1,1,4-trimethylcyclohexane	-179870	503.25
56065-43-1	4,6-dimethyl-4-octanol	-415990	548.02
583-48-2	3,4-dimethylhexane	-212700	451.62
7713-69-1	methyl-sec-butylamine	-97600	384.39
105-53-3	diethyl malonate	-781000	553.7
62184-46-7	4-methyl-5-ethylnonane	-292100	607.23
6261-25-2	1-chloro-trans-2-pentene	-45050	377.6
3508-00-7	1-bromoheptadecane	-367880	869.24
62185-03-9	2,2,4,4-tetramethyl-3-ethylhexane	-250100	538.14
76-19-7	octafluoropropane	-1703200	415.17
65927-60-8	2,3,5-trimethyl-3-hexanol	-400630	499.54
917-92-0	3,3-dimethyl-1-butyne	103000	335.67
66214-16-2	dimethyltriacontylamine	-636280	1418.6
36653-82-4	1-hexadecanol	-522500	832.54
62198-77-0	3,4,4-trimethyl-5-ethylheptane	-278700	560.61
66577-31-9	propyl decyl sulfide	-269620	729.05
10203-28-8	2-dodecanol	-448520	703.03
4371-48-6	2-methyl-3-isopropylphenol	-207260	449.88
110-96-3	diisobutylamine	-179200	486.32
66731-95-1	5-methyl-2-nonanol	-412520	577.37
463-18-3	1-fluorononane	-407600	542.93
110-54-3	hexane	-166900	388.74
4609-87-4	1-nitrodecane	-260490	625.82
75-15-0	carbon disulfide	116940	237.97
66359-42-0	butyl pentadecyl sulfide	-394050	963.5
7688-21-3	cis-2-hexene	-50300	385.52
767-99-7	cis-(1-methyl-1-propenyl)benzene	94230	428.37
66576-72-5	1,1-diiodohexatriacontane	-637910	1660
66702-99-6	2-iodo-3-methyl-2-butene	27980	391.48
560-22-5	3,3,4-trimethyl-1-pentene	-93700	425.86
1795-20-6	octylcyclopentane	-251000	609.95
13151-27-4	2-methyl-1-decene	-154730	575.72
563-52-0	3-chloro-1-butene	-21480	331.11
541-73-1	m-dichlorobenzene	25500	343.47
75-86-5	acetone cyanohydrin	-133000	336.51
40589-14-8	2-methyl-1-nonanol	-407240	586.89
62183-78-2	2,2,3,7-tetramethyloctane	-310500	567.65
62183-65-7	3,5-dimethyl-5-ethyloctane	-295000	594.15
39093-27-1	methylnonylamine	-196260	586.19
1071-84-7	1,1,1-trichlorononane	-286700	597.85
592-84-7	butyl formate	-427100	408.63
19550-09-5	4,4-dimethyl-3-hexanol	-374710	470.11
14686-13-6	trans-2-heptene	-73300	423.33
488-70-0	2,3,4,5-tetramethylphenol	-224920	447.07
10102-03-1	nitrogen pentoxide	11300	346.56
79-36-7	dichloroacetyl chloride	-280830	350.74
4481-30-5	2-phenyl-3-methylbutane	-44400	459.01
1195-32-0	1-methyl-4-(1-methylethenyl)benzene	81340	379.23
66702-92-9	5-fluoro-cis-2-pentene	-225420	375.88
62016-25-5	4-methyl-6-ethyloctane	-276500	566.4
62127-67-7	1,1,1-tribromodecane	-179490	659.79
112-24-3	triethylene tetramine	3350	565.27
7783-61-1	silicon tetrafluoride	-1614940	282.76
527-54-8	3,4,5-trimethylphenol	-192810	414.28
6886-16-4	2,5-dimethyl-1-hexanol	-371240	499.46
359-10-4	2-chloro-1,1-difluoroethylene	-332200	302.27
1595-16-0	1-methyl-4-sec-butylbenzene	-49600	460.92
2049-94-7	1-phenyl-3-methylbutane	-41000	474
62127-22-4	1,1-difluorotritriacontane	-1138600	1439.4
460-12-8	biacetylene	450000	249.9
62168-05-2	1,1-dibromohexacosane	-532590	1261.3
66256-41-5	2,2,4-trimethyl-3-ethyl-3-pentanol	-424740	509.14
62016-91-5	1-chlorononatriacontane	-854890	1739.2
59871-24-8	trans-1-chloro-1-octene	-106970	494.46
629-75-4	2-hexadecyne	-101270	750.98
6294-31-1	dihexyl sulfide	-249740	684.13
62183-77-1	2,2,3,6-tetramethyloctane	-308200	572.68
53566-37-3	5-methyl-2-hexyne	74400	401.99
922-59-8	3-methyl-1-pentyne	116900	364.18
35895-39-7	3-iodo-cis-2-pentene	37770	395.64
60-12-8	2-phenylethanol	-121000	405.62
66214-18-4	methylhentriacontylamine	-650340	1443.1
62127-26-8	1,1-difluoroheptatriacontane	-1220600	1597.1
66142-53-8	1,1-diiodoundecane	-121910	686.19
10102-44-0	nitrogen dioxide	33100	240.04
54616-49-8	4-ethyl-cis-2-hexene	-99800	440.48
17312-45-7	3,4-dimethyldecane	-295100	612.26
635-81-4	1,2,4,5-tetraethylbenzene	-123260	583.38
136-35-6	1,3-diphenyltriazene	331600	
142-82-5	heptane	-187800	428.23
1120-48-5	dioctylamine	-320100	819.91
62168-27-8	1,1-dibromononane	-181710	599.14
66553-05-7	1-amino-2,3-dimethylbutane	-141400	430.79
40289-98-3	methyl octadecyl sulfide	-389900	961.66
31294-94-7	1-iodo-2-methylpentane	-95580	435.81
296-18-4	cyclooctadecane	-414110	
96-47-9	2-methyltetrahydrofuran	-218050	249.04
98-46-4	3-nitrobenzotrifluoride	-602000	433.77
1679-06-7	2-hexanethiol	-137900	445.28
14130-09-7	pentacosylamine	-525540	1181.4
54653-26-8	2,2-dibromopentane	-102620	413.98
17312-49-1	4,6-dimethyldecane	-299000	611.59
589-82-2	3-heptanol	-345320	470.03
66225-46-5	cis-1-fluoro-1-hexene	-246060	414.83
62016-24-4	4-methyl-5-ethyloctane	-271500	567.41
108-10-1	4-methyl-2-pentanone	-286400	413.63
52897-17-3	3-ethyl-2,2,3-trimethylpentane	-252590	492.2
75-31-0	isopropylamine	-83700	312.35
62184-55-8	2,3,3-trimethylnonane	-300200	583.42
929-98-6	dinonyl sulfide	-373420	918.75
13463-67-7	titanium (IV) oxide	-305430	260.11
107-46-0	disiloxane, hexamethyl	-777700	535.06
23074-36-4	2-bromo-1-butene	16080	354.1
625-06-9	2,4-dimethyl-2-pentanol	-354070	431.16
5340-36-3	3-methyl-3-octanol	-390070	518.59
592-27-8	2-methylheptane	-215400	459.34
62199-15-9	2,2,6-trimethyl-5-ethylheptane	-312700	566.31
624-65-7	propargyl chloride	159000	287.89
2213-23-2	2,4-dimethylheptane	-241000	485.07
563-45-1	3-methyl-1-butene	-27600	334.62
66577-60-4	2-heptadecanethiol	-364800	876.98
106-43-4	p-chlorotoluene	18200	342.46
66577-13-7	1,1-diiodooctatriacontane	-679190	1737.9
353-50-4	carbonyl fluoride	-638900	258.89
7220-26-0	3-ethyl-2,4-dimethylhexane	-252840	518.59
112-69-6	dimethylhexadecylamine	-347320	873.23
407-79-4	5-fluoro-1-pentene	-217210	377.86
34014-79-4	1,3-hexadecanediol	-683310	871.5
928-49-4	3-hexyne	106000	375.92
14189-13-0	2-ethyl-1,5-pentanediol	-492900	536.52
590-19-2	1,2-butadiene	162300	292.58
513-81-5	2,3-dimethyl-1,3-butadiene	45100	340.36
18868-43-4	molybdenum (IV) oxide	-8310	277.09
20024-91-3	1-ethyl-3-propylbenzene	-43300	479.7
7440-65-5	yttrium	421300	179.23
118-91-2	o-chlorobenzoic acid	-325000	400.26
62127-03-1	1,1-difluorotetradecane	-748400	758.65
1313-27-5	molybdenum oxide	-346440	284
74-83-9	methyl bromide	-37700	246
121-14-2	2,4-dinitrotoluene	-64200	
7783-06-4	hydrogen sulfide	-20500	205.76
66213-67-0	cis-1-chloro-3-methyl-1-butene	-50330	368.08
7373-13-9	2-octadecanone	-528300	890.85
77-74-7	3-methyl-3-pentanol	-344000	348.57
110-52-1	1,4-dibromobutane	-73230	413.91
594-70-7	2-nitro-2-methylpropane	-175100	362.25
628-21-7	1,4-diiodobutane	27850	423.05
19313-57-6	butyl decyl sulfide	-291000	768.07
66793-71-3	2,5,5-trimethyl-2-hexanol	-398820	479.72
42474-20-4	1,3-dibromopentane	-99150	443.33
18835-33-1	1-hexacosene	-454540	1164.2
33943-21-4	2-methyl-4-ethyl-3-hexanol	-397160	528.89
62126-81-2	1-fluorotetracosane	-734800	1122.6
2532-67-4	1,trans-2,cis-3,trans-4-tetramethylcyclopentane	-229630	329.07
62127-06-4	1,1-difluoroheptadecane	-810200	878.13
5194-50-3	cis-2,trans-4-hexadiene	47400	357.13
1630-94-0	1,1-dimethylcyclopropane	-8200	307.79
638-66-4	octadecanal	-498000	893.2
107-07-3	2-chloroethanol	-262000	320.87
75-84-3	2,2-dimethyl-1-propanol	-319070	401.19
5780-13-2	meso-2,3-dibromobutane	-83790	394.85
625-44-5	methyl isobutyl ether	-265400	378.71
10361-37-2	barium chloride	-498730	326.26
4209-90-9	2,2-dimethyl-3-hexanol	-374710	470.11
66576-58-7	1,1-diiodononatriacontane	-699830	1776.9
80-56-8	alpha-pinene	28300	473.29
14402-50-7	2-dodecanethiol	-261600	680.87
7783-64-4	zirconium (IV) fluoride	-1673600	319.65
629-70-9	hexadecyl acetate	-733500	915.28
10524-01-3	4-chloro-3-methyl-1-butene	-42120	370.06
66213-81-8	4-fluoro-2-methyl-1-butene	-227000	373.7
62126-85-6	1,1,1-trifluorononadecane	-1032600	952.31
598-74-3	1,2-dimethylpropylamine	-112700	418.87
503-17-3	dimethylacetylene	145900	283.19
61828-00-0	1-methyl-1-isopropylcyclopentane	-158650	516.16
66719-35-5	7,7-dimethyl-1-octanol	-410710	557.54
66702-95-2	trans-1-iodo-2-methyl-1-butene	37770	395.64
62199-36-4	2,4,5,5-tetramethyloctane	-303200	567.99
24319-07-1	2-iodo-3-methylpentane	-100860	426.28
76-05-1	trifluoroacetic acid	-1021700	332.26
62127-40-6	1,1-difluoropentane	-562700	401.58
131-11-3	dimethyl phthalate	-663000	661.6
20548-54-3	calcium sulfide	123600	232.59
62183-69-1	4,4-dimethyl-3-ethyloctane	-286600	581.07
78-84-2	isobutyraldehyde	-215800	314.03
66577-11-5	ethylpentatriacontylamine	-753540	1637.9
692-45-5	vinyl formate	-262000	305.97
16746-87-5	2,4-dimethyl-1-hexene	-101600	437.56
563-47-3	3-chloro-2-methyl-1-propene	-25990	336.47
872-05-9	1-decene	-124690	544.08
1304-28-5	barium oxide	-123850	235.99
61827-94-9	hentriacontylcyclopentane	-725890	1507.9
127-91-3	beta-pinene	38700	404.2
4926-78-7	1-methyl-cis-4-ethylcyclohexane	-199000	420.67
29044-06-2	2-methyl-2,5-hexanediol	-536300	381.43
16921-96-3	iodine heptafluoride	-961070	347.74
62183-76-0	2,2,3,5-tetramethyloctane	-307400	570.34
3404-61-3	3-methyl-1-hexene	-69500	408.37
74-87-3	methyl chloride	-82000	234.15
7423-69-0	3,5-dimethyl-1-hexene	-96900	432.83
4923-78-8	1-methyl-trans-2-ethylcyclohexane	-200000	417.32
14130-10-0	hexacosylamine	-546180	1220.4
693-02-7	1-hexyne	123700	369.21
120-12-7	anthracene	227700	385.95
21109-95-5	barium sulfide	37780	249.39
62108-59-2	1,1,1-trichloropentadecane	-410500	836.12
52663-48-6	octadecyl propanoate	-792900	1033.4
62127-02-0	1,1-difluorotridecane	-727700	719.17
66214-33-3	methyltritriacontylamine	-691620	1521
62184-28-5	3,6,6-trimethylnonane	-307300	589.12
30951-88-3	diethylhexadecylamine	-388600	951.13
41909-29-9	3-fluoropentane	-347920	372.93
6158-45-8	1-isopropylnaphthalene	72470	467.73
873-66-5	trans-1-propenylbenzene	117200	380.06
7616-94-6	perchloryl fluoride	-21420	278.99
3710-31-4	1,2-heptanediol	-503500	500.97
67-64-1	acetone	-217100	295.5
12024-08-7	gallium oxide	279500	230.68
2039-90-9	2-ethenyl-1,3-dimethylbenzene	89290	422.16
7439-92-1	lead	195200	175.39
62185-26-6	3-ethyl-4-propylheptane	-289400	591.8
62183-83-9	2,2,5,5-tetramethyloctane	-320100	557.93
98-82-8	cumene	4000	389.32
691-37-2	4-methyl-1-pentene	-51500	368.08
66324-55-8	trans-1-fluoro-1-tridecene	-390540	687.5
62127-44-0	1,1-difluoroundecane	-686500	639.52
21020-27-9	4-methyl-2-pentyne	97500	361.16
62199-20-6	2,2,6,6-tetramethyloctane	-320200	560.27
105-66-8	propyl butanoate	-505300	482.25
61847-94-7	1-pentatriacontyne	-473830	1488.8
66291-78-9	methylheptacosylamine	-567780	1287.3
5969-12-0	2,6-heptanediol	-484700	572.21
66576-36-1	methylnonatriacontylamine	-815460	1754.8
66575-83-5	triheptadecylamine	-1028400	2158.7
62199-33-1	2,3,6,6-tetramethyloctane	-310000	577.38
19780-44-0	4-ethyl-3-hexanol	-371240	499.46
17301-94-9	4-methylnonane	-253970	541.74
692-24-0	2-methyl-trans-3-hexene	-82400	390.66
1317-36-8	lead oxide	70290	240.05
15673-00-4	1-amino-3,3-dimethylbutane	-149800	376.72
61827-98-3	pentatriacontylcyclopentane	-808450	1663.7
6418-43-5	3-methylhexadecane	-399490	808.67
66576-56-5	3,3-dimethyl-2-ethyl-1-butanol	-374710	470.11
107-93-7	trans-2-butenoic acid	-378000	338.41
62016-73-3	1,2,2,cis-3-tetramethylcyclopentane	-194050	440.96
14255-44-8	2-nitrohexane	-183210	460.48
19902-98-8	1,cis-3-dimethyl-trans-2-ethylcyclopentane	-209290	371.43
61828-05-5	tetracosylbenzene	-426000	1218.2
66702-90-7	4-fluoro-trans-2-pentene	-230700	366.35
18371-13-6	2-methyl-2-ethyl-1-butanol	-348790	440.69
5008-72-0	4-methyl-3-thiahexane	-133200	432.81
624-89-5	methyl ethyl sulfide	-59400	205.74
35599-77-0	1-iodotridecane	-234780	718
1759-81-5	4-methylcyclopentene	11100	328.96
20327-65-5	trans-1-fluoro-1-propene	-184140	297.97
7632-51-1	vanadium tetrachloride	-525500	363.08
4181-95-7	tetracontane	-868930	1714.1
112-30-1	1-decanol	-397400	596.95
61868-04-0	2,3-dimethyloctadecane	-466690	916
3581-69-9	2,2-dimethylpropyl propanoate	-540400	492.22
99-71-8	4-sec-butylphenol	-195790	456.05
2470-68-0	diheptylamine	-278820	742
922-17-8	3,4-hexanediol	-493000	436.19
66576-99-6	methylheptatriacontylamine	-774180	1676.9
19961-27-4	ethylisopropylamine	-105300	358.56
66291-73-4	trans-1-bromo-1-decene	-106180	589.99
17302-16-8	3-methyl-3-ethyloctane	-276900	557.01
19624-22-7	pentaborane	73220	275.74
1560-09-4	cis-(1-butenyl)benzene	104020	432.52
54265-17-7	trans-1-bromo-2-methyl-1-butene	-12770	391.07
119-65-3	isoquinoline	208400	365.7
2938-98-9	2-methyl-1,4-butanediol	-456000	452.11
5867-93-6	methyl pentyl sulfate	-783500	
7317-85-3	ethyloctadecylamine	-402660	975.72
112-34-5	diethylene glycol monobutyl ether	-606000	597.35
2211-70-3	2-chloro-1-butene	-25990	336.47
1495-50-7	cyanogen fluoride	35980	225.4
66291-77-8	ethylhexacosylamine	-567780	1287.3
493-02-7	trans-decahydronaphthalene	-182100	373.89
2308-38-5	tert-butyl butanoate	-562800	486.18
1590-87-0	disilane	80300	272.02
7194-84-5	heptatriacontane	-807010	1597.2
7440-70-2	calcium	177800	154.89
591-76-4	2-methylhexane	-194600	420.52
141-32-2	butyl acrylate	-395050	485.89
118-90-1	o-toluic acid	-322800	406.69
16325-63-6	2,4,4-trimethyl-1-pentanol	-374710	470.11
66794-03-4	2-methyl-3-ethyl-3-hexanol	-395350	509.07
75-68-3	1-chloro-1,1-difluoroethane	-529700	307.17
589-55-9	4-heptanol	-345320	470.03
604-88-6	hexaethylbenzene	-224260	699.37
1726-12-1	1,1-diphenylpentane	69000	
1530-08-1	1,1-diphenylundecane	-75000	
96-17-3	2-methylbutanal	-235200	367.24