CAS	name	Hf(g)	S0(g)
66688-61-7	3-iodo-1-pentene	50490	392.25
75-12-7	formamide	-186190	248.71
2016-42-4	tetradecylamine	-298200	757.8
7440-28-0	thallium	182200	180.92
62126-84-5	1,1,1-trifluoroheptadecane	-991290	874.4
78-77-3	1-bromo-2-methylpropane	-134000	255.53
52841-28-8	methylethyl-tert-butylamine	-129030	405.88
17302-25-9	3,5-dimethylnonane	-278600	573.44
53225-40-4	3,trans-4-dimethylcyclopentene	-11700	363.08
110-94-1	glutaric acid	-844000	445.21
119-64-2	1,2,3,4-tetrahydronaphthalene	26000	366.22
698-71-5	3-methyl-5-ethylphenol	-181340	420.46
1795-21-7	decylcyclopentane	-292200	688.26
49859-87-2	dimethylnonadecylamine	-409240	990.08
62127-17-7	1,1-difluorooctacosane	-1036100	1242.3
4427-56-9	4-methyl-2-isopropylphenol	-207260	449.88
821-11-4	trans-2-butene-1,4-diol	-300000	387.56
66688-38-8	2,3-diiodopentane	-3350	442.95
52896-91-0	3-ethyl-4-methylheptane	-250500	528.69
62184-21-8	3,3,7-trimethylnonane	-307300	589.45
75-30-9	2-iodopropane	-41700	325.39
108-30-5	succinic anhydride	-524100	336.81
16980-85-1	1-pentacosene	-433900	1125.2
61868-75-5	2,2,4-trimethyl-4-ethylhexane	-272700	521.12
7646-69-7	sodium hydride	124270	188.23
7440-66-6	zinc	130420	160.9
13362-80-6	4,8-dimethylquinoline	167080	369.52
107-81-3	2-bromopentane	-125480	392.29
66688-34-4	2,3-diiodo-2-methylbutane	-6820	413.6
7782-39-0	deuterium	0	144.96
1795-16-0	decylcyclohexane	-337800	696.56
17042-16-9	4-methyl-3-hexanone	-305670	445.84
16812-54-7	nickel sulfide	357420	252.31
3174-67-2	1,3-pentanediol	-462000	423.8
61868-30-2	2,6-dimethyl-3-ethylheptane	-281500	552.98
62199-42-2	3,3,4,5-tetramethyloctane	-289200	575.7
62016-41-5	3,3,5-trimethyloctane	-279500	552.98
62155-10-6	methyl pentadecyl sulfide	-328100	843.53
62198-95-2	2-methyl-5,5-diethylheptane	-299500	568.66
62127-14-4	1,1-difluoropentacosane	-974600	1124.1
3452-97-9	3,5,5-trimethyl-1-hexanol	-395350	509.07
105-59-9	methyl diethanolamine	-380000	471.38
61868-44-8	2,2,4,4-tetramethylheptane	-277800	522.13
66610-92-2	1,4-dimethyl-6-ethylnaphthalene	51300	509.67
1639-09-4	heptyl mercaptan	-149500	493.83
2443-03-0	1-methyl-trans-3-propylcyclopentane	-188950	413.79
98-00-0	furfuryl alcohol	-218900	408.22
7439-96-5	manganese	283260	173.71
690-39-1	1,1,1,3,3,3-hexafluoropropane	-1299400	385.29
605-02-7	1-phenylnaphthalene	247000	459.65
630-19-3	2,2-dimethylpropanal	-249600	301.23
10043-35-3	boric acid	-992230	295.48
558-37-2	3,3-dimethyl-1-butene	-60400	341.91
53184-67-1	nonyl propanoate	-606600	679.02
66675-39-6	trans-2-fluoro-2-butene	-214570	332.77
13450-92-5	germanium bromide	-300000	395.88
20291-95-6	2,2,5-trimethylheptane	-271750	505.95
13520-78-0	tungsten (VI) oxytetrachloride	-573490	377.02
939-27-5	2-ethylnaphthalene	95900	421.87
1680-58-6	1-sec-butylnaphthalene	51300	509.67
26761-40-0	diisodecyl phthalate	-1060100	1224.5
62184-67-2	3-ethylthiacyclopentane	-80800	
13360-63-9	ethylbutylamine	-113200	432.06
16491-15-9	1,5-dimethylcyclopentene	-29100	361.41
111-46-6	diethylene glycol	-571200	440.07
108-47-4	2,4-dimethylpyridine	63900	361.48
999-21-3	diallyl maleate	-517000	641.35
5451-63-8	tetradecyl formate	-634800	801.85
10294-54-9	cesium sulfate	-1122570	406.32
62154-88-5	1-iodoheptatriacontane	-730140	1652.9
6765-39-5	1-heptadecene	-269300	818.22
7782-50-5	chlorine	0	223.08
75-76-3	silane, tetramethyl	-286600	361.18
66688-49-1	1,3-diiodo-2,2-dimethylpropane	-1540	423.13
61868-51-7	2,3,3,6-tetramethylheptane	-286500	530.51
78-97-7	lactonitrile	-63900	408.48
7647-01-00	hydrogen chloride	-92300	188.98
66326-06-5	nonadecyl propanoate	-813500	1072.9
502-44-3	epsilon-caprolactone	-425930	362.76
360-89-4	octafluoro-2-butene	-1650000	431.64
460-19-5	cyanogen	309070	241.56
66688-45-7	1,4-difluoro-2-methylbutane	-544030	404.63
600-11-3	2,3-dichloropentane	-188570	398.56
627-67-8	1-nitro-3-methylbutane	-162570	421.53
25339-17-7	isodecanol	-409000	587.9
15869-87-1	2,2-dimethyloctane	-267000	512.15
62199-67-1	2,3,3,4,5-pentamethylheptane	-284400	554.24
58175-57-8	2-propyl-1-pentanol	-365960	508.99
4113-08-0	hexadecyl formate	-676200	880.49
112-47-0	1,10-decanediol	-554190	647.31
1072-16-8	2,7-dimethyloctane	-264010	517.18
34581-76-5	1,1,2,3-tetrabromopropane	-10490	458
12440-00-5	phosphorous (III) oxide	-2214310	345.71
109-99-9	tetrahydrofuran	-184180	297.76
66553-17-1	2-ethyl-1,3-butanediol	-484400	465.03
66719-43-5	5-methyl-3-nonanol	-412520	577.37
2717-42-2	1,2,4-trimethylnaphthalene	57000	442.68
25346-32-1	2-chloro-4-methylpentane	-193470	404.09
65036-71-7	4,5-dimethyl-cis-2-hexene	-101800	441.96
7440-23-5	sodium	107300	153.51
32620-08-9	trans-1-bromo-1-butene	17660	356.28
630-20-6	1,1,1,2-tetrachloroethane	-149400	356.22
61868-73-3	2,2,3-trimethyl-4-ethylhexane	-272500	524.81
7094-26-0	1,1,2-trimethylcyclohexane	-179870	503.25
56065-42-0	3,5-dimethyl-3-octanol	-415990	548.02
18441-55-9	2,4-dimethyl-5-ethylphenol	-213450	453.24
66688-67-3	1,1-difluoro-2-methylbutane	-549310	395.1
52897-15-1	2,3,4,5-tetramethylhexane	-258030	499.78
496-73-1	1,3-dihydroxy-4-methylbenzene	-305900	375.2
66577-26-2	ethyltetratriacontylamine	-732900	1599
62017-20-3	1,1-dichlorooctadecane	-460200	940.25
95-80-7	toluenediamine	58370	398.29
3175-23-3	1,2,2-trichloropropane	-161220	334.25
7642-15-1	cis-4-octene	-89500	466.84
4095-22-1	2-isopropylthiophene	42360	389.86
51751-87-2	trans-1-bromo-1-octene	-64900	512.09
629-73-2	1-hexadecene	-248600	779.06
106-48-9	p-chlorophenol	-145800	345.51
27644-49-1	3-methyl-2-octanol	-391880	538.41
642-32-0	1,2,3,4-tetraethylbenzene	-123260	581.4
7440-09-7	potassium	89000	160.35
1303-86-2	boron oxide	-835960	283.9
24768-46-5	propyl heptyl sulfide	-207780	611.82
79-11-8	chloroacetic acid	-435200	348.11
64502-86-9	3,4-dimethyl-2-pentanol	-355880	450.98
62016-47-1	2,2-dimethyl-5-ethylheptane	-290100	537.22
62108-81-0	1-fluoroheptacosane	-796720	1239.4
111-66-0	1-octene	-83600	464.83
62198-72-5	3,3,4-trimethyl-4-ethylheptane	-280300	559.6
50586-19-1	trans-1-chloro-1-hexene	-65690	416.56
13465-84-4	silane, tetraiodo	-110460	416.43
2084-18-6	3-methyl-2-butanethiol	-121000	394.72
5461-02-9	undecyl butanoate	-670300	797.49
75-36-5	acetyl chloride	-242800	295.17
62168-40-5	1,1-dibromotricosane	-470670	1144.5
2131-39-7	1,3,5-trimethylnaphthalene	57000	442.68
4167-74-2	4-isobutylphenol	-195790	456.05
123-19-3	4-heptanone	-301100	448.76
1463-17-8	2,8-dimethylquinoline	167080	369.52
53310-02-4	2-amino-2-methylpentane	-157100	352.24
33234-93-4	7-methyl-1-nonanol	-407240	586.89
61847-96-9	2-heptadecyne	-121910	789.94
513-35-9	2-methyl-2-butene	-40800	338.65
66455-44-5	trans-1-iodo-1-eicosene	-262040	984.08
63521-36-8	3,4-dimethyl-1,4-pentanediol	-518200	442.14
26158-99-6	ethyl pentyl sulfide	-145810	493.19
10022-50-1	nitryl fluoride	-108780	260.26
598-58-3	methyl nitrate	-120400	302.42
590-13-6	cis-1-bromo-1-propene	40800	304.65
66826-79-7	1,1-diiodotetradecane	-183830	803.04
18720-66-6	6-methyl-3-heptanol	-371240	499.46
814-40-4	ethyl methyl sulfate	-721200	
589-43-5	2,4-dimethylhexane	-219200	448.27
62184-49-0	5-methyl-3-ethylnonane	-297200	605.55
61868-87-9	2,2,3,4,4-pentamethylhexane	-262300	504.35
32018-76-1	2,5-dimethyl-4-ethylphenol	-213450	453.24
3683-22-5	4-methyl-trans-2-hexene	-80500	397.03
7429-91-6	dysprosium	290400	195.74
66793-96-2	2,2-dimethyl-3-ethyl-3-pentanol	-398820	479.72
287-92-3	cyclopentane	-77100	292.7
109-97-7	pyrrole	108200	270.72
7646-78-8	stannic chloride	-471500	365.53
1184-60-7	2-fluoro-1-propene	-185720	295.79
13478-41-6	copper (I) fluoride	-12550	226.48
66256-63-1	2,2,3,4-tetramethyl-3-hexanol	-424740	509.14
60-35-5	acetamide	-238300	284.67
61869-05-4	2,2-dimethylpentadecane	-402960	779.32
143-27-1	hexadecylamine	-339400	836.44
591-68-4	butyl valerate	-560200	572.96
420-12-2	ethylene sulfide	82380	255.25
16746-02-4	2-isopropyl-1-pentene	-98090	449.33
52812-57-4	cis-1-iodo-2-methyl-1-butene	37770	395.64
12034-59-2	niobium (IV) oxide	-200000	272.86
1068-19-5	4,4-dimethylheptane	-241200	467.3
13520-59-7	molybdenum (IV) bromide	-171130	418.99
18593-92-5	3-methyl-2-isopropyl-1-butanol	-376520	489.94
359-01-3	2-fluorobutane	-327280	333.98
560-21-4	2,3,3-trimethylpentane	-218500	426.8
13205-60-2	ethylisobutylamine	-119900	417.77
928-40-5	1,5-hexanediol	-484700	455.84
3404-63-5	2-ethyl-1,3-butadiene	73900	376.35
4032-94-4	2,4-dimethyloctane	-256270	528.69
62183-75-9	2,2,3,4-tetramethyloctane	-295700	572.35
598-05-0	dipropyl sulfate	-796400	
13360-61-7	1-pentadecene	-228000	739.58
39220-66-1	1-nitroheptadecane	-404970	898.48
5344-20-7	1-amino-4-methylpentane	-139700	428.31
3922-27-8	1,1,1-trichloropentane	-204200	439.22
66577-48-8	diethyltridecylamine	-326680	834.27
54653-29-1	2-bromo-cis-2-pentene	-12770	391.07
27522-11-8	2-ethyl-1-pentanol	-345320	470.03
120-80-9	pyrocatechol	-272000	333.46
7440-25-7	tantalum	781990	185.25
618-85-9	3,5-dinitrotoluene	-43000	
91-22-5	quinoline	222300	366.04
2411-36-1	triheptylamine	-409240	990.08
13231-81-7	3-methyl-1-hexanol	-345320	470.03
3031-15-0	1,2,3,4-tetramethylnaphthalene	51300	509.67
7784-33-0	arsenic (III) bromide	-130000	360.58
62016-26-6	2,2,3-trimethyloctane	-283000	541.24
143-16-8	dihexylamine	-237540	664.1
106-21-8	3,7-dimethyl-1-octanol	-412520	577.37
61828-26-0	octacosylbenzene	-508560	1374
103-09-3	2-ethylhexyl acetate	-570000	606.75
66213-84-1	trans-1-fluoro-1-pentene	-225420	375.88
628-28-4	methyl butyl ether	-258100	390.79
54774-89-9	2-methyl-1-propylnaphthalene	51300	509.67
29443-50-3	2,2-diiodobutane	19100	384.17
66374-79-6	trans-1-chloro-1-pentadecene	-251450	767.13
66326-07-6	ethyleicosylamine	-443940	1053.6
697-82-5	2,3,5-trimethylphenol	-192810	414.28
13840-33-0	lithium hypochlorite	-14230	256.45
7803-51-2	phosphine	5440	210.24
713-36-0	2-methyldiphenylmethane	133100	495.07
66271-81-6	ethyl tridecyl sulfide	-310700	805.88
62127-09-7	1,1-difluoroeicosane	-872100	996.93
597-96-6	3-methyl-3-hexanol	-348790	440.69
557-93-7	2-bromo-1-propene	46000	346.27
62016-43-7	3,4,4-trimethyloctane	-276500	543.93
59129-74-7	4,5-dimethylquinoline	167080	369.52
13783-07-8	titanium (II) iodide	-19660	323.63
98-86-2	acetophenone	-86600	385.02
10524-08-0	4-chloro-1-pentene	-42120	370.06
38514-15-7	3-isopropyl-1-heptanol	-412520	577.37
421-48-7	1,1,1,2-tetrafluoropropane	-903720	351.24
61847-99-2	2-eicosyne	-183830	906.79
61847-97-0	2-octadecyne	-142550	828.89
544-97-8	zinc, dimethyl	53000	
97-88-1	butyl methacrylate	-422000	525.21
57093-84-2	3-ethyl-2-thiapentane	-129000	446.89
13465-72-0	silane, triiodo	-74470	375
66225-30-7	2,3-dimethyl-trans-3-hexene	-111400	430.25
62017-29-2	1,1-dichloroheptacosane	-637370	1265
62046-36-0	1,1-dichloroheptadecane	-439500	900.77
7789-41-5	calcium bromide	-384930	314.76
100-18-5	p-diisopropylbenzene	-77600	489
528-29-0	o-dinitrobenzene	27800	322.83
24346-53-0	1-iodo-3-methylpentane	-95580	435.81
111-13-7	2-octanone	-321600	496.97
23361-67-3	2,2-dimethylpropyl formate	-465000	417.94
62183-91-9	4-methyl-5-isopropyloctane	-286600	596.5
42131-85-1	2-chloro-1-pentene	-46630	375.42
110-53-2	1-bromopentane	-129160	409.56
3970-60-3	2,2,5-trimethyl-3-hexanol	-400630	499.54
463-49-0	allene	190900	243.7
927-73-1	4-chloro-1-butene	-16200	340.63
1613-45-2	5-methyl-3-thiahexane	-134600	428.11
98-08-8	benzotrifluoride	-600000	373.23
66256-40-4	3,4,5,5-tetramethyl-3-hexanol	-424740	509.14
66793-75-7	4,5,5-trimethyl-1-hexanol	-395350	509.07
690-92-6	2,2-dimethyl-cis-3-hexene	-91000	452.29
503-74-2	3-methylbutanoic acid	-503000	431.11
53193-22-9	1-heptadecanethiol	-356300	886.7
1192-18-3	cis-1,2-dimethylcyclopentane	-129500	366.31
105-56-6	ethyl cyanoacetate	-316140	413.5
3074-71-3	2,3-dimethylheptane	-235900	492.79
7443-55-2	trans-3-methylcyclohexanol	-329100	391.84
1067-20-5	3,3-diethylpentane	-232800	437.11
66213-80-7	3-fluoro-3-methyl-1-butene	-225960	338.98
16727-91-6	1-isobutylnaphthalene	51300	509.67
29394-58-9	1-iodo-2-methylbutane	-74940	396.86
66291-51-8	cis-1-iodo-1-decene	-55640	594.56
110-57-6	1,4-dichloro-trans-2-butene	-66200	383.44
62127-34-8	1-fluoro-2,2-dimethylbutane	-368560	411.89
6308-94-7	diethyldecylamine	-264760	717.42
625-30-9	1-methylbutylamine	-122700	396.36
1314-35-8	tungsten (VI) oxide	-292880	286.39
124-12-9	octanenitrile	-43570	473.73
2216-25-3	1-nitroundecane	-281130	664.77
19182-11-7	1,2-diethylnaphthalene	51300	509.67
123-76-2	levulinic acid	-607000	426.48
76-12-0	1,1,2,2-tetrachloro-1,2-difluoroethane	-511300	385.74
62016-27-7	2,2,5-trimethyloctane	-292000	542.92
61868-85-7	2,2,3,3,4-pentamethylhexane	-266100	500.33
109-83-1	methylethanolamine	-198000	344.5
66793-95-1	2,2-dimethyl-3-ethyl-1-pentanol	-395350	509.07
66719-33-3	4,6-dimethyl-1-octanol	-412520	577.37
127-17-3	pyruvic acid	-625000	317.99
62199-13-7	2,2,6-trimethyl-3-ethylheptane	-300000	571.01
112-88-9	1-octadecene	-290000	857.37
7439-90-9	krypton	0	164.09
16747-42-5	2,2,4,5-tetramethylhexane	-266140	492.93
31841-77-7	5,5-dimethyl-2-hexanol	-374710	470.11
66576-53-2	ethyloctatriacontylamine	-815460	1754.8
38384-05-3	3-chloro-2-methylpentane	-193470	404.09
96-11-7	1,2,3-tribromopropane	-31540	416.47
95-87-4	2,5-xylenol	-161600	392.37
79-39-0	2-methacrylamide	-185000	361.43
62199-09-1	2,2,4-trimethyl-5-ethylheptane	-302600	566.31
7782-44-7	oxygen	0	205.15
13701-91-2	lead (IV) bromide	-456360	426.22
4862-03-1	1-chloropentadecane	-374890	752.85
62127-21-3	1,1-difluorodotriacontane	-1118100	1400
10422-35-2	1-bromo-2-methylbutane	-125480	392.29
10294-33-4	boron tribromide	-204180	324.38
16136-85-9	trans-1-chloro-1-propene	-3770	299.7
62168-06-3	1,1-dibromoheptacosane	-553230	1300.3
628-71-7	1-heptyne	103000	408.36
629-76-5	1-pentadecanol	-501800	793.39
62184-45-6	4-methyl-3-ethylnonane	-292300	602.87
616-20-6	3-chloropentane	-185600	390.42
108-24-7	acetic anhydride	-575720	390.55
66675-38-5	cis-2-fluoro-2-butene	-214570	332.77
3875-51-2	isopropylcyclopentane	-203780	240.18
13475-78-0	5-ethyl-2-methylheptane	-258240	522.92
102-86-3	trihexylamine	-347320	873.23
66214-15-1	diethyloctacosylamine	-636280	1418.6
62017-25-8	1,1-dichlorotricosane	-554810	1109.2
13286-91-4	3-methyl-2-thiahexane	-130700	441.19
818-81-5	2-methyl-1-octanol	-386600	547.94
1640-89-7	ethylcyclopentane	-126900	378.05
62108-87-6	1-fluorotritriacontane	-920560	1473.1
17361-44-3	ditetradecylamine	-567780	1287.3
19184-10-2	cis-1-fluoro-1-propene	-184140	297.97
14188-79-5	2-decylnaphthalene	-80530	706.82
17312-46-8	4,5-dimethyldecane	-294900	610.58
62017-28-1	1,1-dichlorohexacosane	-616730	1226.1
16325-64-7	3,4,4-trimethyl-1-pentanol	-374710	470.11
66576-90-7	ethyltritriacontylamine	-712260	1560
124-38-9	carbon dioxide	-393520	213.91
52897-18-4	3-ethyl-2,2,4-trimethylpentane	-253340	486.46
52317-98-3	methyl-3-methylbutylamine	-114200	436.89
109-64-8	1,3-dibromopropane	-52590	374.95
541-33-3	1,1-dichlorobutane	-171400	384.39
3234-49-9	1,2-dibromopentane	-99150	443.33
31294-97-0	3-iodo-2-methylpentane	-100860	426.28
1007-26-7	1-phenyl-2,2-dimethylpropane	-46400	440.8
32812-23-0	2,2-dimethyl-1,4-butanediol	-481200	458.06
5454-79-5	cis-3-methylcyclohexanol	-350900	391.84
38514-02-2	3-methyl-1-octanol	-386600	547.94
630-04-6	hentriacontane	-683170	1363.5
4806-61-5	ethylcyclobutane	-27500	341.91
66794-23-8	1,2-diiodo-2-methylpropane	19100	384.17
16666-42-5	cis-2-pentenoic acid	-375300	411.68
66213-95-4	dimethylheptacosylamine	-574360	1301.7
4276-51-1	1-bromohexacosane	-553640	1219.8
36343-05-2	methylheptylamine	-154980	508.29
66214-32-2	ethyldotriacontylamine	-691620	1521
75-97-8	3,3-dimethyl-2-butanone	-290500	385.12
3042-50-0	1,4-dimethyl-2-propylbenzene	-52700	476.68
10570-69-1	2,6-dimethyl-4-ethylphenol	-213450	453.24
66577-14-8	2,4-dimethyl-1-ethylnaphthalene	51300	509.67
115-77-5	pentaerythritol	-776700	438.08
579-66-8	2,6-diethylaniline	-20500	474.24
151-56-4	ethyleneimine	123430	250.99
1638-22-8	4-butylphenol	-190510	465.58
66213-68-1	trans-1-chloro-3-methyl-1-butene	-50330	368.08
2211-69-0	2-chloro-cis-2-butene	-34200	334.49
4218-48-8	1-ethyl-4-isopropylbenzene	-47500	460.58
62127-68-8	1,1,1-tribromoundecane	-200130	698.75
92-52-4	phenylbenzene (biphenyl)	182400	391.24
1889-67-4	2,3-dimethyl-2,3-diphenylbutane	59200	575.51
1191-96-4	ethylcyclopropane	3200	330.6
921-47-1	2,3,4-trimethylhexane	-235400	477.7
934-80-5	4-ethyl-o-xylene	-32090	437.23
66271-76-9	pentadecyl formate	-655500	841.34
62127-05-3	1,1-difluorohexadecane	-789600	838.3
1551-27-5	2-propylthiophene	42360	389.86
62184-40-1	2-methyl-7-ethylnonane	-300300	602.87
371-65-3	2,2-difluoropentane	-547500	375.28
143-10-2	decyl mercaptan	-210900	611.96
1678-91-7	ethylcyclohexane	-171600	382.99
62184-15-0	2,6,6-trimethylnonane	-309600	583.75
12025-32-0	germanium (II) sulfide	92000	230.84
51079-79-9	4,6,6-trimethyl-2-heptanol	-421270	538.49
58049-91-5	3,3-dimethylcyclopentene	-21100	347.65
95-48-7	o-cresol	-128600	349.19
66214-31-1	dimethyldotriacontylamine	-677560	1496.5
288-42-6	oxazole	-15500	270.75
62184-38-7	2-methyl-5-ethylnonane	-300100	606.89
66793-92-8	2,4,4-trimethyl-3-hexanol	-400630	499.54
1560-88-9	2-methyloctadecane	-440770	886.57
1071-81-4	2,2,5,5-tetramethylhexane	-285270	471.57
359-35-3	1,1,2,2-tetrafluoroethane	-892400	320.34
7309-44-6	ethyl hexyl sulfide	-166400	532.21
66213-82-9	4-fluoro-3-methyl-1-butene	-222490	368.33
4740-00-5	3-methylthiacyclopentane	-60170	
354-58-5	1,1,1-trichloro-2,2,2-trifluoroethane	-740600	369.22
75-63-8	bromotrifluoromethane	-649800	295.81
10377-51-2	lithium iodide	-91000	232.29
628-44-4	2-methyl-2-octanol	-390070	518.59
36794-64-6	2,3,3-trimethyl-1-butanol	-354070	431.16
2876-44-0	2-octylnaphthalene	-36530	635.22
62184-91-2	2,3-dimethyl-4,4-diethylhexane	-272500	564.97
80-59-1	trans-2-methyl-2-butenoic acid	-389200	393.73
62184-11-6	2,4,7-trimethylnonane	-306200	599.52
598-77-6	1,1,2-trichloropropane	-163030	354.07
36301-29-8	1-methyl-2-isobutylbenzene	-47400	472.32
93-37-8	2,7-dimethylquinoline	167080	369.52
1630-77-9	cis-1,2-difluoroethene	-322200	268.81
7789-67-5	stannic bromide	-314600	411.95
75-87-6	trichloroacetaldehyde	-197000	349.67
10377-48-7	lithium sulfate	-1041820	322.9
107-41-5	hexylene glycol	-534760	457.52
2869-34-3	tridecylamine	-277600	718.31
62168-28-9	1,1-dibromoundecane	-222990	677.05
7348-71-2	1-bromo-trans-2-pentene	-2980	395.23
592-41-6	1-hexene	-42000	383.84
206-44-0	fluoranthene	289000	413.19
66702-93-0	5-fluoro-trans-2-pentene	-225420	375.88
513-44-0	isobutyl mercaptan	-96900	362.95
13814-25-0	sulfur (II) fluoride	-296650	257.7
1795-09-1	2-methylthiacyclopentane	-63890	
1674-33-5	1,2-dichloropentane	-183290	408.08
62127-42-8	1,1-difluorononane	-645200	560.54
122-66-7	hydrazobenzene	319000	454.26
430-61-5	1,1-difluoropropane	-521500	321.93
62199-39-7	2,5,5,6-tetramethyloctane	-304100	570
62127-70-2	1,1,1-tribromotridecane	-241410	776.65
103-84-4	acetanilide	-128500	369.61
1462-11-9	5-methyl-1,5-hexanediol	-501020	491.58
73180-09-3	1-fluorotetradecane	-510700	741.38
66702-96-3	trans-1-iodo-3-methyl-1-butene	42280	390.28
7782-41-4	fluorine	0	202.79
542-55-2	isobutyl formate	-436300	407.29
120-61-6	dimethyl terephthalate	-637000	574.4
13939-06-5	molybdenum hexacarbonyl	-912100	490.44
65-85-0	benzoic acid	-290100	369.72
3724-61-6	dodecyl butanoate	-691000	836.97
359-00-2	1-fluoro-2-methylpropane	-327280	333.98
90-05-1	guaiacol	-249000	399.11
513-48-4	2-iodobutane	-54300	357.9
74-84-0	ethane	-83800	229.45
14832-90-7	selenium monoxide	53400	234.23
36186-96-6	3-methyl-5-propylphenol	-201980	459.41
7783-86-0	iron (II) iodide	87860	349.57
129-00-0	pyrene	225700	402.12
17373-28-3	dimethylundecylamine	-244120	678.47
62127-00-8	1,1,1-trifluoropentadecane	-950010	796.5
19780-41-7	3-ethyl-3-heptanol	-390070	518.59
563-79-1	2,3-dimethyl-2-butene	-70000	364.72
7385-82-2	5-methyl-trans-2-hexene	-82300	391
62185-09-5	2,3,4,4-tetramethyl-3-ethylhexane	-259600	537.13
7440-27-9	terbium	388700	204.01
821-55-6	2-nonanone	-340800	536.46
18932-14-4	2,2,4-trimethyloctane	-284900	545.6
7553-56-2	iodine	62420	260.68
590-50-1	4,4-dimethyl-2-pentanone	-309140	416.5
3717-68-8	4-methyl-1,1-diphenylethane	103600	512.49
3001-66-9	2-octanethiol	-179100	523.92
19780-63-3	2-methyl-3-ethyl-2-pentanol	-374710	470.11
3675-69-2	1,2,2-tribromobutane	-55650	426.08