CAS	name	Hf(g)	S0(g)
62168-15-4	1,1-dibromohexatriacontane	-738990	1650.9
21351-79-1	cesium hydroxide	-259410	254.86
84-66-2	diethyl phthalate	-688300	742.26
62184-37-6	2-methyl-4-ethylnonane	-299400	606.56
111-83-1	1-bromooctane	-182120	518.67
6261-19-4	1-chloro-cis-2-pentene	-45050	377.6
66577-21-7	1,2,4,6-tetramethylnaphthalene	51300	509.67
52897-03-7	4-ethyl-2,4-dimethylhexane	-256190	509.17
66291-81-4	methylhexacosylamine	-547140	1248.4
10026-04-7	silicon tetrachloride	-662750	330.94
51891-58-8	2,2-difluoro-3-methylbutane	-552780	365.76
142-92-7	hexyl acetate	-526300	522.07
62184-72-9	5-isopropylnonane	-295100	598.51
93-89-0	ethyl benzoate	-284000	454.07
2040-96-2	propylcyclopentane	-148070	418.48
13812-43-6	cis-difluorodiazine	68620	259.81
75-52-5	nitromethane	-74700	275.31
600-24-8	2-nitrobutane	-163600	367.96
55505-24-3	4-methyl-2-isopropyl-1-pentanol	-447690	526.91
62199-69-3	2,3,3,5,5-pentamethylheptane	-290600	554.91
26490-07-3	2-isobutylnaphthalene	51300	509.67
627-08-7	propyl isopropyl ether	-306200	411.83
589-35-5	3-methyl-1-pentanol	-322900	437.05
110-81-6	diethyl disulfide	-74100	414.46
638-68-6	triacontane	-662530	1324.6
592-76-7	1-heptene	-62800	425.34
98-56-6	p-chlorobenzotrifluoride	-619650	403.43
611-32-5	8-methylquinoline	199190	336.74
66702-87-2	3-fluoro-trans-2-pentene	-235210	371.72
5910-77-0	tritridecylamine	-780760	1691.2
104-51-8	butylbenzene	-13140	440.28
61868-39-1	4,4-dimethyl-3-ethylheptane	-265900	541.58
17616-44-3	1,3-diiodo-2-methylpropane	22570	413.52
66577-52-4	cis-1-iodo-1-heptadecene	-200120	867.23
630-17-1	1-bromo-2,2-dimethylpropane	-128950	362.94
624-51-1	3-nonanol	-386600	547.94
10099-66-8	lutetium chloride	-649000	
14808-60-7	silicon dioxide ( quartz)	-305430	228.97
79-16-3	N-methylacetamide	-240000	320.81
60212-32-0	3-tetradecyne	-59990	673.08
625-16-1	tert-pentyl acetate	-540700	447.36
62183-73-7	4,5-dimethyl-4-ethyloctane	-290600	580.06
13470-08-1	titanium (III) fluoride	-1188670	291.41
2217-17-6	2,4,5,7-tetramethyloctane	-307400	577.04
7417-48-3	3-methyl-1,2-pentadiene	111250	365.99
18495-30-2	1,1,2,3-tetrachloropropane	-178770	387.5
66576-44-1	dimethylheptatriacontylamine	-780760	1691.2
19841-72-6	2,2-dimethyl-3-octanol	-415990	548.02
66256-44-8	2,2,6-trimethyl-4-heptanol	-421270	538.49
17773-65-8	2-chloro-3-methyl-2-butene	-64630	369.29
31844-95-8	2-bromo-1-pentene	-4560	393.05
10359-64-5	3-methyl-2-thiapentane	-109940	402.64
630-13-7	2,2-diiodopropane	39740	345.22
627-26-9	trans-crotonitrile	140700	306.61
7461-19-0	1-bromohexatriacontane	-760040	1609.3
62199-24-0	2,3,3,6-tetramethyloctane	-304900	575.03
13470-13-8	tungsten (IV) chloride	-335970	379.23
4282-42-2	1-iodononane	-152220	562.19
57253-29-9	1-bromo-2-methyl-cis-2-butene	-12770	391.07
62185-20-0	3,4,5,5-tetramethyloctane	-289200	575.03
7783-09-7	hydrogen telluride	99600	
62199-02-4	4-methyl-3,4-diethylheptane	-280300	579.39
62127-59-7	1,1-dibromo-3-methylbutane	-104430	433.81
7789-46-0	iron (II) bromide	-41420	337.34
108-90-7	chlorobenzene	51100	314.04
78-92-2	sec-butanol	-292800	359.35
5881-17-4	3-ethyloctane	-251080	536
28122-25-0	2-ethyldiphenylmethane	112300	533.49
62199-07-9	2,2,4-trimethyl-3-ethylheptane	-275700	567.65
3982-66-9	1,2-dimethyl-4-propylbenzene	-54900	476.68
927-62-8	dimethylbutylamine	-91600	432.77
95-57-8	o-chlorophenol	-123000	351.54
625-29-6	2-chloropentane	-176000	346.32
10428-64-5	1,2-dibromo-2-methylbutane	-102620	413.98
66225-19-2	6-methyl-cis-3-heptene	-89500	475.03
4806-59-1	1,cis-2,trans-3-trimethylcyclopropane	-135050	-10.09
66577-20-6	1,2,3,6-tetramethylnaphthalene	51300	509.67
7789-28-8	iron (II) fluoride	-389530	265.19
764-35-2	2-hexyne	105130	373
3855-26-3	4-methyl-2-ethylphenol	-181340	420.46
62126-91-4	1,1-difluoro-2-methylpropane	-528670	356.15
31367-46-1	3-methyl-2-heptanol	-371240	499.46
21542-96-1	dimethyldocosylamine	-471160	1106.9
27554-26-3	diisooctyl phthalate	-967000	1032
2876-53-1	1-hexylnaphthalene	14400	579.59
66214-00-4	triacontylamine	-628740	1376.2
61868-47-1	2,2,5,5-tetramethylheptane	-299500	520.79
61868-59-5	3,3,4,4-tetramethylheptane	-272600	510.05
13150-81-7	2,6-dimethyldecane	-302200	608.24
66577-09-1	diethyltritriacontylamine	-739480	1613.3
62016-13-1	3-isopropyl-2-methylhexane	-255680	509.91
21308-80-5	bromine oxide	107650	290.83
35161-70-7	methylhexylamine	-134340	469.34
3586-58-1	2-methylenebutanoic acid	-450600	159.12
39198-07-7	methylethylisopropylamine	-110100	378.9
66553-34-2	1-nitro-2,3-dimethylbutane	-188490	450.96
52897-05-9	4-ethyl-3,3-dimethylhexane	-253680	509.17
99-08-1	m-nitrotoluene	20800	388.66
66292-46-4	cis-1-chloro-1-octadecene	-313370	883.98
513-53-1	sec-butyl mercaptan	-96600	366.98
1070-01-5	tridecylamine	-595000	1340.7
12034-57-0	niobium (II) oxide	198740	238.92
66577-05-7	1,1-diiodoheptatriacontane	-658550	1698.9
75-77-4	chlorotrimethylsilane	-352800	369.04
430-57-9	1,2-dichloro-1-fluoroethane	-317480	322.92
15840-60-5	2-methyl-cis-3-hexene	-77200	408.1
5162-48-1	2,2,4-trimethyl-3-pentanol	-379990	460.59
109-79-5	butyl mercaptan	-87800	375.36
61868-32-4	3,3-dimethyl-4-ethylheptane	-265900	547.95
62417-08-7	2,6-dimethyl-1-octanol	-412520	577.37
626-89-1	4-methyl-1-pentanol	-324900	430.34
1484-87-3	3,3,5-trimethyl-1-hexanol	-395350	509.07
61828-10-2	pentacosylcyclohexane	-628850	1333
638-49-3	pentyl formate	-448200	448.12
609-27-8	3-ethyl-2-pentanol	-350600	460.51
62126-99-2	1,1,1-trifluorotetradecane	-929370	757.55
10553-31-8	barium bromide	-424680	342.6
589-98-0	3-octanol	-365960	508.99
62184-12-7	2,5,5-trimethylnonane	-309600	583.75
627-36-1	propyl isocyanide	61000	391.74
143-07-7	dodecanoic acid	-640000	691.76
66225-39-6	dimethyl-2-methylbutylamine	-125560	435.23
20193-20-8	1-ethylpropylamine	-112700	390.66
55499-04-2	2,2,3-trimethylnonane	-303600	580.73
62183-97-5	2,2-dimethyl-5-ethyloctane	-310600	581.07
627-02-1	ethyl isobutyl ether	-298800	418.2
19655-56-2	8-ethylquinoline	178550	375.69
66576-24-7	2,2,3,3-tetramethyl-1-butanol	-378180	440.77
6795-87-5	methyl sec-butyl ether	-270500	381.73
77-84-9	2-methyl-2-ethyl-1,3-propanediol	-476200	466.64
626-85-7	dibutyl sulfite	-634700	
934-74-7	5-ethyl-m-xylene	-35400	426.8
16962-07-5	aluminum borohydride	13000	380.64
17302-02-2	3,3-diethylhexane	-252300	482.64
42599-17-7	trans-1-iodo-1-octene	-14360	516.66
62184-89-8	2,2-dimethyl-4,4-diethylhexane	-288300	546.52
62127-75-7	1,1,1-tribromononadecane	-365250	1010.4
66142-60-7	trans-1-bromo-1-undecene	-126820	628.94
67363-95-5	3-ethylfuran	-97900	304.31
62-53-3	aniline	86860	319.87
12032-36-9	magnesium sulfide	145230	225.48
62127-18-8	1,1-difluorononacosane	-1056600	1281.8
62184-00-3	2,3-dimethyl-4-ethyloctane	-293300	591.13
108-45-2	m-phenylenediamine	91200	360.37
111-40-0	diethylene triamine	-5860	444.88
100-80-1	m-methylstyrene	115500	375.7
3073-66-3	1,1,3-trimethylcyclohexane	-179870	503.25
623-98-3	dipropyl sulfite	-593200	
6221-99-4	hexadecyl butanoate	-773800	994.26
7787-47-5	beryllium chloride	-360240	252.3
540-42-1	isobutyl propanoate	-542500	446.69
107-15-3	ethylenediamine	-17320	321.52
61868-86-8	2,2,3,3,5-pentamethylhexane	-279300	500.66
66359-53-3	cis-1-chloro-1-nonadecene	-334010	922.94
3195-86-6	2-ethylthiacyclopropane	20900	
684-16-2	hexafluoroacetone	-1460000	392.77
66688-36-6	1,3-diiodopentane	1930	452.47
16021-20-8	1-ethyl-2-propylbenzene	-38000	475.01
61828-19-1	tetratriacontylcyclohexane	-814610	1683.6
13762-26-0	zirconium dichloride	-186190	292.69
66576-46-3	methyloctatriacontylamine	-794820	1715.8
3074-75-7	4-ethyl-2-methylhexane	-236200	488.43
14850-22-7	cis-3-octene	-89500	482.27
75-72-9	chlorotrifluoromethane	-704200	285.29
19780-39-3	3-ethyl-2-heptanol	-391880	538.41
13520-79-1	tungsten (VI) oxytetrafluoride	-1336620	334.65
40646-07-9	1,4-heptanediol	-503500	500.97
35902-57-9	ethyldodecylamine	-278820	742
6006-33-3	tridecylcyclohexane	-399800	815.02
462-39-5	1,3-difluoropropane	-497470	336.25
61828-14-6	nonacosylcyclohexane	-711410	1488.8
62199-18-2	2,3,4-trimethyl-3-ethylheptane	-280200	573.02
690-37-9	2,4,4-trimethyl-2-pentanol	-378180	440.77
66256-61-9	7-methyl-2-nonanol	-412520	577.37
110-05-4	di-t-butyl peroxide	-341000	496.12
96-18-4	1,2,3-trichloropropane	-185770	269.62
39825-93-9	1,2-eicosanediol	-765870	1027.3
79-43-6	dichloroacetic acid	-436000	342.32
2404-52-6	phosphorus (V) sulfide trifluoride	-1009070	298.15
135-98-8	sec-butylbenzene	-16900	428.47
66610-91-1	2,3-diethylnaphthalene	51300	509.67
110-45-2	isopentyl formate	-453800	440.74
66455-42-3	cis-1-fluoro-1-eicosene	-535020	960.16
62183-52-2	2,6-dimethyl-4-ethyloctane	-303400	597.84
3539-29-5	methyl octyl sulfate	-845900	
62154-87-4	1-iodohexatriacontane	-709500	1613.9
540-67-0	methyl ethyl ether	-216500	309.13
17302-27-1	2,5-dimethylnonane	-281500	569.08
7440-46-2	cesium	76500	175.68
2884-06-2	2,3-dimethylnonane	-277300	570.09
28122-27-2	3',5'-dimethyldiphenylmethane	101000	527.88
66576-89-4	dimethyltritriacontylamine	-698200	1535.4
61828-15-7	triacontylcyclohexane	-732050	1527.8
7789-20-0	deuterium oxide	-249200	198.34
627-35-0	methyl-propylamine	-66000	374.01
108-41-8	m-chlorotoluene	18200	338.4
19781-73-8	heptadecylcyclohexane	-463730	1021.4
62016-93-7	1-chloro-3-methylpentane	-188190	413.61
52670-33-4	2,3,3,4,5-pentamethylhexane	-266700	512.06
6418-44-6	3-methylheptadecane	-420130	847.62
2370-14-1	2,2-dimethyl-1-octanol	-410710	557.54
41927-66-6	eicosyl butanoate	-856500	1151.9
66291-50-7	trans-1-fluoro-1-decene	-328620	570.64
7440-42-8	boron	560000	153.5
62199-62-6	2,2,4,4,6-pentamethylheptane	-299630	550.88
6221-95-0	tetradecyl propanoate	-710100	875.79
78-99-9	1,1-dichloropropane	-150800	344.57
638-67-5	tricosane	-518050	1051.9
62185-14-2	2,2,3,4,5,5-hexamethylhexane	-296600	528.08
504-63-2	1,3-propanediol	-409000	302.97
17302-20-4	4-methyl-4-propylheptane	-276600	543.26
17057-92-0	1-methyl-5-ethylnaphthalene	69000	456.09
10038-98-9	germanium chloride	-495800	348.12
16165-33-6	diundecylamine	-443940	1053.6
66688-47-9	2,4-difluoropentane	-549310	395.1
634-90-2	1,2,3,5-tetrachlorobenzene	-20100	399.64
20669-04-9	3,3-dimethyl-2-pentanone	-309140	416.5
5396-09-8	2,3,5,5-tetramethyl-3-hexanol	-424740	509.14
62199-61-5	2,2,4,4,5-pentamethylheptane	-292900	547.53
1071-26-7	2,2-dimethylheptane	-246100	472.33
66793-98-4	2,4-dimethyl-2-ethyl-1-pentanol	-395350	509.07
103-11-7	2-ethylhexyl acrylate	-470000	642.68
69-72-7	salicylic acid	-466350	400.72
111-55-7	ethylene glycol diacetate	-807000	507.84
66553-15-9	2,3-dimethyl-1,2-butanediol	-494400	413.79
61868-71-1	3-methyl-4,4-diethylhexane	-256800	536.55
112-72-1	1-tetradecanol	-481100	753.9
592-50-7	1-fluoropentane	-325100	383.97
4168-40-5	1,1-dichlorotetradecane	-377600	781.63
22438-39-7	methyl decyl sulfide	-224900	647.42
3968-85-2	1-phenyl-2-methylbutane	-41000	474
594-60-5	2,3-dimethyl-2-butanol	-348200	342.67
61847-85-6	1-pentacosyne	-267430	1099.3
19398-77-7	3,4-diethylhexane	-247570	517.18
66688-43-5	1,3-difluoro-2-methylbutane	-549310	395.1
107-20-0	chloroacetaldehyde	-191000	304.23
1310-65-2	lithium hydroxide	-234300	210.7
99-65-0	m-dinitrobenzene	53800	376.5
66793-87-1	2,3,4,4-tetramethyl-2-pentanol	-404100	470.19
624-96-4	1,3-dichloro-3-methylbutane	-186760	378.73
26423-61-0	3-chloro-trans-2-pentene	-54840	373.45
62016-67-5	1,trans-3-dimethyl-1-ethylcyclopentane	-173710	483.32
66374-99-0	methyltricosylamine	-485220	1131.5
62126-86-7	1,1,1-trifluoroeicosane	-1053200	991.26
2210-28-8	propyl methacrylate	-402000	482.71
1560-92-5	2-methylhexadecane	-399490	808.67
95-51-2	o-chloroaniline	57300	356.45
2430-73-1	1,4-nonanediol	-538830	598.83
338-65-8	2-chloro-1,1-difluoroethane	-497850	321.19
59734-23-5	5-methyl-4-octanol	-391880	538.41
821-93-2	1,1-dichlorotridecane	-357000	741.8
142-60-9	octyl propanoate	-585800	639.87
62184-80-9	1-pentadecylcyclopentene	-289800	
14558-12-4	1,3,5,8-tetramethylnaphthalene	51300	509.67
24768-44-3	ethyl heptyl sulfide	-187020	571.4
50468-22-9	3-methyl-1,2-butanediol	-472000	398.45
42217-02-7	1-chloroeicosane	-474890	958.34
58368-66-4	1-methylbutyl formate	-466300	440.74
84869-42-1	nonadecyl butanoate	-835800	1112.4
19903-00-5	1,cis-3-dimethyl-cis-2-ethylcyclopentane	-209290	371.43
66553-52-4	ethyldecylamine	-237540	664.1
74-97-5	bromochloromethane	-44800	287.84
10250-55-2	1,1-diiodo-2-methylpropane	17290	404
10523-96-3	4-chloro-2-methyl-1-butene	-46630	375.42
7757-82-6	sodium sulfate	-1033620	346.55
75-34-3	1,1-dichloroethane	-130100	305.08
62946-68-3	2-propyl-1,4-butanediol	-492900	536.52
137-32-6	2-methyl-1-butanol	-302080	394.23
107-85-7	3-methylbutylamine	-112700	410.68
4283-83-4	3-bromo-2-methylpentane	-151400	421.71
592-13-2	2,5-dimethylhexane	-222500	442.57
17302-22-6	3,4-dimethylnonane	-274400	572.77
66553-40-0	trans-1-bromo-1-dodecene	-147460	667.9
111-86-4	octylamine	-174600	521.87
74-88-4	methyl iodide	13800	254.13
295-17-0	cyclotetradecane	-239200	
62168-08-5	1,1-dibromononacosane	-594510	1378.2
12137-18-7	rhodium monoxide	385000	
877-44-1	1,2,4-triethylbenzene	-71090	519.46
2980-69-0	4-methylundecane	-295300	621.65
34403-06-0	3-methyl-1,2-diphenylethane	112300	533.49
60415-61-4	1-methylbutyl butanoate	-564000	554.18
7790-91-2	chlorine trifluoride	-158870	281.6
589-62-8	4-octanol	-365960	508.99
4706-81-4	2-tetradecanol	-489800	780.4
57233-31-5	2,2,4-trimethyl-4-heptanol	-419460	518.67
62198-99-6	3-methyl-4,5-diethylheptane	-281300	592.81
33933-78-7	5-methyl-5-nonanol	-410710	557.54
86-74-8	dibenzopyrrole	209600	244.95
62016-45-9	3,4,6-trimethyloctane	-278300	564.39
626-93-7	2-hexanol	-333500	436.98
62198-64-5	2,4,4-trimethyl-5-ethylheptane	-286400	570.34
20193-58-2	molybdenum (III) fluoride	-607100	296.07
38395-42-5	4-ethyl-4-octanol	-410710	557.54
2039-89-6	2-ethenyl-1,4-dimethylbenzene	89290	422.16
7439-88-5	iridium	665300	194.48
61868-12-0	1-tetratriacontene	-619660	1475.8
930-90-5	1-methyl-trans-2-ethylcyclopentane	-168310	374.84
13465-71-9	silane, trifluoro	-1200810	277.26
61868-37-9	3,5-dimethyl-3-ethylheptane	-274400	557.34
126-30-7	neopentyl glycol	-447000	404.15
762-50-5	1-chloro-2-fluoroethane	-290000	304.32
594-83-2	2,3,3-trimethyl-2-butanol	-357540	401.81
78-93-3	methyl ethyl ketone	-238600	339.35
646-05-9	1-pentene-3-yne	249000	313.41
3698-93-9	propyl octyl sulfide	-228280	650.84
62126-94-7	1,2-difluoropentane	-544030	404.63
1072-33-9	tridecyl acetate	-671400	797.15
4706-90-5	1,3-dimethyl-5-isopropylbenzene	-61700	460.25
108-70-3	1,3,5-trichlorobenzene	-6900	362.83
121-69-7	N,N'-dimethylaniline	100500	366.65
608-93-5	pentachlorobenzene	-29100	425.72
66793-94-0	3,3-diethyl-2-pentanol	-395350	509.07
5161-12-6	3,trans-4-dimethylthiacyclopentane	-89300	
108-43-0	m-chlorophenol	-153300	351.54
61869-03-2	2,2-dimethyl-3-ethylheptane	-272400	544.93
7661-55-4	5-methylquinoline	199190	336.74
7516-82-7	methyldecylamine	-216900	625.15
2882-98-6	nonylcyclopentane	-271600	649.11
62199-26-2	2,3,4,4-tetramethyloctane	-292200	572.01
1678-92-8	propylcyclohexane	-193200	419.97
542-54-1	4-methylpentanenitrile	-16300	392.5
25607-16-3	1-methyl-2-ethylnaphthalene	69000	456.09
2311-14-0	1,1,1-tribromoethane	-4700	354.31
62184-81-0	1-hexadecylcyclopentene	-310600	
66292-34-0	methylheptadecylamine	-361380	897.81
111-24-0	1,5-dibromopentane	-93870	452.86
51200-82-9	4-isopropyl-4-heptanol	-415990	548.02
3017-71-8	2-bromo-trans-2-butene	7870	352.12
2439-54-5	methyloctylamine	-175620	547.24
62185-44-8	2,5-dimethyl-4-isopropylheptane	-293100	584.09
624-41-9	2-methylbutyl acetate	-511900	477.21
13764-18-6	1,4,6,7-tetramethylnaphthalene	51300	509.67
62108-47-8	1-bromononacosane	-615560	1336.7
5329-79-3	2-aminohexane	-143800	414.55
66576-85-0	1,1-diiodopentatriacontane	-617270	1621
1314-87-0	lead sulfide	131800	251.42
24768-42-1	butyl pentyl sulfide	-187950	572.64
96-37-7	methylcyclopentane	-106000	339.9
62016-61-9	1,1-dimethyl-3-ethylcyclopentane	-173710	483.32
686-65-7	1,2-difluorobutane	-523390	365.68
102-69-2	tripropylamine	-161000	531.21
1118-00-9	methyl 2,2-dimethylpropyl ether	-296100	392.71
3769-23-1	4-methyl-1-hexene	-68300	412.39
55517-75-4	tritriacontylcyclohexane	-793970	1644.6
10034-85-2	hydrogen iodide	26360	206.59
14739-73-2	2,2,3,5,5-pentamethylhexane	-293200	505.02
62185-40-4	2,3-dimethyl-4-isopropylheptane	-287800	580.4
66292-30-6	1-nitrooctadecane	-425610	937.44
18094-01-4	2-methyl-1-tridecene	-216650	692.57
430-66-0	1,1,2-trifluoroethane	-669400	310.45
3970-59-0	2,4-dimethyl-3-ethyl-3-pentanol	-400630	499.54
39036-65-2	1-methyl-2-propylnaphthalene	51300	509.67
598-73-2	bromotrifluoroethylene	-455000	334.75
62108-89-8	1-fluoropentatriacontane	-961840	1551
6117-80-2	cis-2-butene-1,4-diol	-295000	387.56
20278-85-7	2,3,5-trimethylheptane	-260540	518.59
62016-86-8	1-chlorotetratriacontane	-754890	1533.7
629-19-6	dipropyl disulfide	-117600	491.76
62199-25-1	2,3,3,7-tetramethyloctane	-307200	569.67
58046-40-5	2,3,6-trimethyl-3-heptanol	-421270	538.49
62016-65-3	1,cis-2-dimethyl-trans-4-ethylcyclopentane	-209290	371.43
2437-56-1	1-tridecene	-186600	661.27
7564-63-8	o-ethylstyrene	100760	428.33
7440-05-3	palladium	378200	166.73
6561-44-0	3-methyloctadecane	-440770	886.57
696-29-7	isopropylcyclohexane	-195000	409.4
17312-44-6	2,3-dimethyldecane	-298000	609.58
66688-62-8	4-iodo-cis-2-pentene	42280	390.28
355-25-9	decafluorobutane	-2140000	466.73
542-69-8	1-iodobutane	-49020	367.43
17059-45-9	1,3-dimethyl-2-propylbenzene	-44500	461.25
7722-84-1	hydrogen peroxide	-136110	232.99
61869-01-0	3,4-diethylheptane	-268900	559.69
15869-89-3	2,5-dimethyloctane	-261120	528.72
13783-04-5	titanium (II) bromide	-179070	308.65
62198-76-9	3,4,4-trimethyl-3-ethylheptane	-280300	553.9
15013-37-3	4-methyl-2-thiahexane	-129000	446.89
61868-10-8	2,4-dimethyloctadecane	-466690	916
13632-94-5	1-methyl-2,5-diethylbenzene	-44500	461.25
60186-78-9	3-tridecyne	-39350	634.13
59104-80-2	1,1-dibromodecane	-202350	638.09
526-75-0	2,3-xylenol	-157200	386
78-74-0	1,1,2-tribromoethane	-10900	377.52
99-86-5	alpha-terpinene	-20600	436.73
573-98-8	1,2-dimethylnaphthalene	83550	407.95
61868-83-5	2,4,4-trimethyl-3-ethylhexane	-251600	530.51
2532-69-6	1,cis-2,cis-3,trans-4-tetramethylcyclopentane	-229630	329.07
75-50-3	trimethylamine	-23700	289.88
61868-55-1	2,3,5,5-tetramethylheptane	-282200	540.91
3742-38-9	4-ethylcyclopentene	-900	418.76
10049-06-6	titanium (II) chloride	-237230	278.3
111-25-1	1-bromohexane	-140840	440.76
564-04-5	2,2-dimethyl-3-pentanone	-309140	416.5
2625-35-6	2-nitro-3-methylbutane	-167850	412.01
2570-26-5	pentadecylamine	-318800	796.95
7783-44-0	difluorine dioxide	19200	277.21
590-18-1	cis-2-butene	-7400	301.17
63318-29-6	cis-1-iodo-1-heptene	6280	477.71
13819-84-6	molybdenum (V) fluoride	-1241390	347.75
62198-91-8	2-methyl-3,4-diethylheptane	-284100	594.15
30427-51-1	diethyloctadecylamine	-429880	1029
62155-15-1	1,1-diphenylpentadecane	-171000	
62168-04-1	1,1-dibromopentacosane	-511950	1222.4
3730-60-7	2,5-dimethyl-2-hexanol	-374710	470.11
5008-73-1	2-methyl-3-thiahexane	-134900	427.1
66575-72-2	trinonadecylamine	-1152300	2392.4
629-78-7	heptadecane	-394450	822.22
62127-23-5	1,1-difluorotetratriacontane	-1159100	1478.9
62016-49-3	methyl 1,2-dimethylpropyl ether	-293800	414.85
10026-08-1	thorium (IV) chloride	-964400	390.7
15672-88-5	1-iodo-3,3-dimethylbutane	-100860	426.28
7440-00-8	neodymium	327600	190.06
460-13-9	1-fluoropropane	-283800	304.32
15869-80-4	3-ethylheptane	-231500	497.82
10241-05-1	molybdenum (V) chloride	-447690	397.87
21035-44-9	ethyl-sec-butylamine	-124000	404.02
13445-50-6	diphosphine	20900	
1185-33-7	2,2-dimethyl-1-butanol	-330000	395.53
62168-39-2	1,1-dibromodocosane	-450030	1105.5
109-89-7	diethylamine	-71700	352.18
6569-51-3	borazine	-510030	288.92
593-53-3	methyl fluoride	-237700	222.66
62127-27-9	1-fluoro-2-methylpentane	-368560	411.89
507-20-0	2-chloro-2-methylpropane	-184800	317.73
629-37-8	1-nitrooctane	-219210	547.91
7154-75-8	4-methyl-1-pentyne	113500	357.13
59562-82-2	3,3-dimethyl-1,2-butanediol	-492000	421.83
54287-41-1	3-amino-2-methylpentane	-145500	417.04
62184-19-4	3,3,5-trimethylnonane	-300100	592.81
78-76-2	2-bromobutane	-134300	362.12
66213-79-4	2-fluoro-3-methyl-2-butene	-245000	367.56
7440-29-1	thorium	602000	190.32