CAS	name	Hf(g)	S0(g)
62199-08-0	2,2,4-trimethyl-4-ethylheptane	-293200	563.96
625-65-0	2,4-dimethyl-2-pentene	-90200	393.18
76-35-7	2,2-dimethyl-1,3-butanediol	-489000	431.9
293-96-9	cyclodecane	-154300	
10476-86-5	strontium iodide	-274890	335.86
53510-18-2	5-methyl-trans-3-heptene	-101500	434.78
42789-13-9	1,2-nonanediol	-538830	598.83
60-29-7	diethyl ether	-250800	342.58
5434-27-5	1,3-dibromo-2,2-dimethylpropane	-107900	404.46
62127-52-0	1-iodoheneicosane	-399900	1029.6
31849-75-9	cis-1-bromo-1-pentene	-2980	395.23
13135-31-4	titanium (III) bromide	-374890	359.03
66172-74-5	cis-1-fluoro-1-undecene	-349260	609.59
112-95-8	eicosane	-456460	940.18
103-71-9	phenyl isocyanate	-22100	352.28
83-32-9	acenaphthene	155000	369.44
620-17-7	m-ethylphenol	-146060	396.4
123-05-7	2-ethylhexanal	-299600	495.93
107-13-1	acrylonitrile	180600	273.83
61847-89-0	1-nonacosyne	-349990	1255.1
31849-78-2	cis-1-bromo-1-butene	17660	356.28
66213-87-4	2-fluoro-cis-2-pentene	-235210	371.72
66719-37-7	2-methyl-3-ethyl-3-heptanol	-415990	548.02
66225-51-2	3-ethyl-1-pentanol	-345320	470.03
66359-58-8	trans-1-iodo-1-nonadecene	-241400	945.13
66688-58-2	2-iodo-trans-2-pentene	37770	395.64
67-56-1	methyl alcohol	-200900	239.88
1634-04-4	methyl tert-butyl ether	-283200	358.92
1318-23-6	aluminum oxyhydroxide ()	-460240	254.42
31807-55-3	2-methylundecane	-297800	617.96
124-11-8	1-nonene	-104000	503.98
617-29-8	2-methyl-3-hexanol	-350600	460.51
15833-75-7	3,3-dimethyltetrahydrofuran	-223450	357.52
14049-36-6	silane, chlorotrifluoro	-1317960	308.67
13364-16-4	1-amino-2-methylpentane	-137700	435.01
66359-55-5	cis-1-fluoro-1-nonadecene	-514380	921.21
41947-84-6	ethyl octadecyl sulfide	-413760	1001.3
61886-68-8	2-undecylnaphthalene	-102530	742.62
23010-04-0	1,2-dichloro-2-methylbutane	-186760	378.73
127-18-4	tetrachloroethylene	-12100	340.92
97-00-7	1-chloro-2,4-dinitrobenzene	35100	437.79
37796-58-0	1,4-diethylnaphthalene	51300	509.67
13463-30-4	lead (IV) chloride	-552400	381.68
61868-91-5	2,3,4-trimethyl-3-isopropylpentane	-241800	495.29
629-93-6	1-iodooctadecane	-337980	912.76
617-79-8	1-amino-2-ethylbutane	-135700	441.72
13470-12-7	tungsten (II) chloride	-12550	309.36
124-28-7	dimethyloctadecylamine	-388600	951.13
66271-74-7	trans-1-iodo-1-hexadecene	-179480	828.28
106-38-7	p-bromotoluene	80400	363.7
628-99-9	2-nonanol	-398000	548.74
3074-61-1	1-propylcyclopentene	-40400	
57303-85-2	dimethyl-2-pentylamine	-125560	435.23
1120-62-3	3-methylcyclopentene	5000	330.64
16416-44-7	cis-1-bromo-3-methyl-1-butene	-8260	385.7
62199-85-3	2,3,5-trimethyl-4-isopropylhexane	-273600	556.58
62016-36-8	2,4,5-trimethyloctane	-280500	557.34
66324-53-6	trans-1-chloro-1-tridecene	-210170	689.22
66256-46-0	2,4,5-trimethyl-4-heptanol	-421270	538.49
62168-30-3	1,1-dibromotridecane	-264270	754.95
13373-97-2	1-eicosanethiol	-418200	1004.2
66688-73-1	trans-1-chloro-1-nonene	-127610	533.41
420-45-1	2,2-difluoropropane	-522500	302.81
20294-76-2	1,2-octadecanediol	-724590	949.4
2430-22-0	7-methyl-1-octanol	-386600	547.94
6165-37-3	4-propylnonane	-293000	612.93
62185-30-2	2,3-dimethyl-4-propylheptane	-293200	583.42
88-74-4	o-nitroaniline	63800	383.19
66359-36-2	1-nitrononadecane	-446250	976.39
7789-57-3	silane, tribromo	-302920	348.04
5161-80-8	2,trans-4-dimethylthiacyclopentane	-89900	
66375-05-1	methyldocosylamine	-464580	1092.6
4458-32-6	methylethylpropylamine	-97300	413.65
62016-57-3	tetracosylcyclopentane	-581410	1235.2
544-77-4	1-iodohexadecane	-296700	834.86
79-29-8	2,3-dimethylbutane	-175900	365.94
1117-86-8	1,2-octanediol	-518190	559.88
7789-61-9	antimony tribromide	-194600	372.29
62168-16-5	1,1-dibromoheptatriacontane	-759630	1689.8
14920-89-9	2,3-dimethylfuran	-97900	336.61
30540-31-9	1-bromo-2,3-dimethylbutane	-149590	401.89
61827-90-5	heptacosylcyclopentane	-643330	1352.1
52897-00-4	3-ethyl-2,3-dimethylhexane	-254180	515.07
541-05-9	hexamethylcyclotrisiloxane	-1770000	
84-65-1	anthraquinone	-95200	
110-00-9	furan	-34700	267.49
646-30-0	nonadecanoic acid	-785000	951.79
34570-59-7	1,1,2,2-tetrabromopropane	-13960	428.65
3638-35-5	isopropylcyclopropane	-19200	378.47
92-67-1	p-aminodiphenyl	184000	433.99
3877-15-4	methyl propyl sulfide	-81900	371.97
66675-34-1	cis-1-fluoro-1-butene	-204780	336.93
111-84-2	nonane	-229030	507.08
62199-80-8	2,2,4-trimethyl-3-isopropylhexane	-250100	547.86
1759-58-6	trans-1,3-dimethylcyclopentane	-133500	367.65
62185-13-1	2,2,3,4,4,5-hexamethylhexane	-278000	521.03
306-83-2	2,2-dichloro-1,1,1-trifluoroethane	-743900	352.54
51116-73-5	1-bromo-3-methylpentane	-146120	431.24
7667-58-5	1,cis-2,trans-4-trimethylcyclohexane	-215450	391.36
471-43-2	1,1-dichloro-2,2-difluoroethane	-518800	354.05
2040-95-1	butylcyclopentane	-168300	454.01
7440-13-3	protactinium	607000	199.48
3377-87-5	3-bromohexane	-146120	431.24
90-13-1	1-chloronaphthalene	119800	376.45
62127-13-3	1,1-difluorotetracosane	-954100	1084.7
110-82-7	cyclohexane	-123400	297.31
110-58-7	pentylamine	-112700	404.08
75-55-8	propyleneimine	88800	288
31295-00-8	1-iodo-2,3-dimethylbutane	-99050	406.46
102-25-0	1,3,5-triethylbenzene	-74730	509.1
930-27-8	3-methylfuran	-67200	310.34
61868-69-7	2-methyl-4,4-diethylhexane	-271700	532.19
66214-07-1	1,1-diiodohentriacontane	-534710	1465.2
6221-98-3	tetradecyl butanoate	-732400	915.62
629-79-8	hexadecanenitrile	-208690	785.35
80-62-6	methyl methacrylate	-347360	401.82
2366-52-1	1-fluorobutane	-304400	344.48
66325-78-8	1,1-diiodopentadecane	-204470	842
4905-79-7	1,1,1-trichlorooctane	-266100	558.03
66225-16-9	4-methyl-cis-2-heptene	-96500	451.55
62185-11-9	2,2,3,3,4,4-hexamethylhexane	-267500	500.91
88-99-3	phthalic acid	-663330	442.93
2358-38-5	1,1-difluorobutane	-542100	361.75
62199-45-5	3,3,5,6-tetramethyloctane	-299900	583.08
66577-51-3	trans-1-fluoro-1-heptadecene	-473100	843.31
599-02-0	2-nitro-3,3-dimethylbutane	-191960	421.61
7789-68-6	titanium (IV) bromide	-550200	398.57
4457-71-0	3-methyl-1,5-pentanediol	-474100	491.4
625-22-9	dibutyl sulfate	-838000	
638-00-6	2,4-dimethylthiophene	51000	359.8
7440-33-7	tungsten	851030	173.9
3178-29-8	4-propylheptane	-251080	526.88
141-05-9	diethyl maleate	-740000	582.92
5145-99-3	2-methyl-3-thiapentane	-109940	402.64
292-64-8	cyclooctane	-124400	367.56
62199-81-9	2,2,5-trimethyl-3-isopropylhexane	-284900	551.22
62183-70-4	4,4-dimethyl-5-ethyloctane	-286400	585.43
52644-81-2	1-iodohexacosane	-503100	1224.4
66576-43-0	diethylpentatriacontylamine	-780760	1691.2
17773-66-9	2,2-dichloro-3-methylbutane	-192040	369.21
76-11-9	1,1,1,2-tetrachloro-2,2-difluoroethane	-519700	380.37
1309-48-4	magnesium oxide	58160	213.27
62183-59-9	3,3-dimethyl-6-ethyloctane	-305400	584.09
62199-29-5	2,3,4,7-tetramethyloctane	-303000	581.07
765-47-9	1,2-dimethylcyclopentene	-39200	351.34
16432-53-4	1,4-hexanediol	-482700	462.55
66213-96-5	ethylheptacosylamine	-588420	1326.3
575-41-7	1,3-dimethylnaphthalene	81800	410.5
538-93-2	isobutylbenzene	-20340	434.38
2855-08-5	1-chloro-3,3-dimethylbutane	-191660	384.27
66225-12-5	3,5-dimethyl-trans-2-hexene	-111300	430.59
6795-88-6	methyl 1-methylbutyl ether	-292500	421.22
558-13-4	carbon tetrabromide	79500	357.79
61827-92-7	nonacosylcyclopentane	-684610	1430
62199-04-6	2,2,3-trimethyl-3-ethylheptane	-287100	561.28
62127-76-8	1,1,1-tribromoeicosane	-385890	1049.3
21255-83-4	bromine dioxide	151960	271.12
4282-40-0	1-iodoheptane	-110940	484.29
123-25-1	diethyl succinate	-851000	589.5
108-93-0	cyclohexanol	-286800	352.93
584-02-1	3-pentanol	-317150	382.18
110-68-9	methyl-butylamine	-86800	412.43
112-49-2	triethylene glycol dimethyl ether	-676000	622.79
62126-96-9	1,4-difluoropentane	-544030	404.63
7720-83-4	titanium (IV) iodide	-277270	433.03
12036-14-5	tantalum (IV) oxide	-200830	280.34
55268-63-8	1,1-diphenyltetradecane	-147000	
10496-16-9	diheptyl disulfide	-284000	806.66
1002-17-1	2,9-dimethyldecane	-304700	598.85
13991-37-2	trans-2-pentenoic acid	-375300	411.68
62127-73-5	1,1,1-tribromoheptadecane	-323970	932.46
142-29-0	cyclopentene	33900	291.48
509-14-8	tetranitromethane	88300	
56-81-5	glycerol	-582800	397.19
106-93-4	1,2-dibromoethane	-38910	330.06
62184-32-1	4-tert-butyloctane	-292900	582.75
66576-45-2	ethylheptatriacontylamine	-794820	1715.8
929-06-6	2-aminoethoxyethanol	-365000	445.64
66324-52-5	cis-1-chloro-1-tridecene	-210170	689.22
3074-77-9	3-ethyl-4-methylhexane	-238700	461.93
936-89-0	2,4-diethylphenol	-201980	459.41
140-11-4	benzyl acetate	-309160	459.63
623-93-8	5-nonanol	-386600	547.94
20278-88-0	3,4,4-trimethylheptane	-256560	515.1
692-70-6	2,5-dimethyl-trans-3-hexene	-111900	408.08
3121-79-7	4,4-dimethyl-1-pentanol	-348790	440.69
582-16-1	2,7-dimethylnaphthalene	83800	414.25
624-22-6	2-methyl-1-hexanol	-345320	470.03
13643-05-5	4-methyl-1,2-pentadiene	65230	358.64
645-49-8	cis-stilbene	245180	453.91
62126-92-5	1,2-difluoro-2-methylpropane	-526860	336.33
62199-43-3	3,3,4,6-tetramethyloctane	-301000	575.37
53731-23-O	1,1-difluoro-2,2-dimethylpropane	-552780	365.76
66719-55-9	2,7-dimethyl-3-octanol	-417800	567.84
638-46-0	ethyl butyl sulfide	-125200	452.33
503-64-0	cis-2-butenoic acid	-354500	366.92
66703-01-3	4-iodo-3-methyl-1-butene	50490	392.25
6703-82-8	heneicosylcyclopentane	-519490	1118.3
67-72-1	hexachloroethane	-138900	398.99
527-84-4	o-cymene	-26400	427.47
2216-34-4	4-methyloctane	-235200	503.19
539-30-0	benzyl ethyl ether	-115000	439.57
617-30-1	2,3-hexanediol	-495000	429.48
2345-28-0	2-pentadecanone	-466300	772.72
62183-94-2	3,6-diethyloctane	-295900	600.86
19313-61-2	ethyl decyl sulfide	-250370	688.62
62185-39-1	2,3-dimethyl-3-isopropylheptane	-283400	566.31
22349-03-7	nonadecylcyclohexane	-505010	1099.3
280-57-9	triethylenediamine	52700	358.44
61868-35-7	3,4-dimethyl-4-ethylheptane	-270100	542.25
58133-26-9	1,1-dibromohexane	-119790	482.28
61828-13-5	octacosylcyclohexane	-690770	1449.9
2613-61-8	2,4,6-trimethylheptane	-253220	509.87
7790-92-3	hypochlorous acid	-74480	236.51
62185-42-6	2,4-dimethyl-4-isopropylheptane	-293600	568.66
42875-41-2	tridecyl formate	-614100	762.69
4282-44-4	1-iodoundecane	-193500	640.1
3404-72-6	2,3-dimethyl-1-pentene	-82300	394.11
22768-20-3	3-methyl-trans-2-heptene	-105300	442.53
5160-99-6	1-methyl-3-isobutylbenzene	-53300	474
62016-72-2	1,1,cis-2,cis-4-tetramethylcyclopentane	-194050	440.96
1545-17-1	1-fluoroheptadecane	-572600	860.52
565-60-6	3-methyl-2-pentanol	-335200	403.98
42245-37-4	1-amino-3-methylpentane	-137700	435.01
62198-61-2	2,3,6-trimethyl-4-ethylheptane	-299600	577.04
78-26-2	2-methyl-2-propyl-1,3-propanediol	-497000	505.06
62199-01-3	4-methyl-3,3-diethylheptane	-277300	574.36
7789-24-4	lithium fluoride	-340790	200.31
1196-58-3	3-phenylpentane	-37400	467.96
66576-27-0	3,5-dimethyl-2-hexanol	-376520	489.94
3221-61-2	2-methyloctane	-235900	499.16
39761-61-0	5,5-dimethyl-cis-2-hexene	-108400	393.93
62184-03-6	2,4-dimethyl-3-ethyloctane	-286800	598.17
5008-69-5	4-methyl-2-thiapentane	-109940	402.64
41781-17-3	1-amino-2,2-dimethylbutane	-144800	393.49
24270-66-4	1,1,2,3,3-pentafluoropropane	-1253200	396.82
17302-29-3	2,7-dimethylnonane	-281700	570.42
7681-49-4	sodium fluoride	-290450	217.45
52670-35-6	2,3,3,5,6-pentamethylheptane	-300300	563.96
6812-38-0	hexadecylcyclohexane	-461800	933.49
52896-90-9	3-ethyl-5-methylheptane	-255390	528.69
66225-32-9	3-ethyl-2,3-pentanediol	-518800	440.13
20668-28-4	3,7-dimethylquinoline	167080	369.52
39761-64-3	3,4,4-trimethyl-cis-2-pentene	-93700	471.91
2550-21-2	3-methyl-2-hexanone	-305670	445.84
66688-39-9	3,3-diiodopentane	-1540	423.13
17302-24-8	2,4-dimethylnonane	-280900	568.41
52896-93-2	2,3,3-trimethylheptane	-259450	509.2
14130-11-1	heptacosylamine	-566820	1259.3
62108-62-7	1,1,1-trichlorooctadecane	-472300	955.26
66577-18-2	3-methyl-2-isopropylnaphthalene	51300	509.67
7446-09-5	sulfur dioxide	-296840	248.22
1190-83-6	2,2,6-trimethylheptane	-274640	500.05
75-71-8	dichlorodifluoromethane	-490800	300.47
10025-67-9	sulfur monochloride	-16740	327.21
62108-57-0	1,1,1-trichlorododecane	-348600	716.99
62199-11-5	2,2,5-trimethyl-4-ethylheptane	-302600	572.01
66703-05-7	1,1-diiodononane	-80630	608.28
106-95-6	3-bromo-1-propene	49370	317.43
62184-07-0	2,5-dimethyl-3-ethyloctane	-299000	595.49
62199-46-6	3,3,6,6-tetramethyloctane	-314800	561.95
66553-46-6	trans-1-iodo-1-dodecene	-96920	672.47
7440-56-4	germanium	372000	167.93
95-76-1	3,4-dichloroaniline	32600	376.82
107-80-2	1,3-dibromobutane	-78510	478.64
541-47-9	3-methyl-2-butenoic acid	-391900	384.68
2473-03-2	1-chloroundecane	-294890	588.45
1795-17-1	dodecylcyclohexane	-379100	775.53
1653-40-3	6-methyl-1-heptanol	-365960	508.99
61868-31-3	2,6-dimethyl-4-ethylheptane	-285000	553.32
92089-78-6	2-fluoro-3,3-dimethylbutane	-377310	373.01
62016-68-6	1,cis-3-dimethyl-1-ethylcyclopentane	-173710	483.32
56-87-1	lysine	-461000	530.94
62183-51-1	2,6-dimethyl-3-ethyloctane	-299900	597.5
7378-99-6	dimethyloctylamine	-182200	561.61
7723-14-0	phosphorus (white)	316390	163.21
666-21-7	2,3-difluorobutane	-528670	356.15
78-59-1	isophorone	-251000	422.68
66702-88-3	3-fluoro-1-pentene	-222490	368.33
112-23-2	heptyl formate	-489800	526.77
61868-45-9	2,2,4,5-tetramethylheptane	-284700	536.21
32444-34-1	3-methyl-2-ethyl-1-butanol	-350600	460.51
66719-53-7	2,5-dimethyl-4-octanol	-417800	567.84
932-40-1	1,trans-2-diethylcyclopentane	-188950	413.79
62108-48-9	1-bromohentriacontane	-656840	1414.6
7440-67-7	zirconium	610030	181.47
62127-58-6	1,1-dibromo-2-methylbutane	-104430	433.81
66576-70-3	1,2-dimethylpropyl propanoate	-543600	499.6
7440-38-2	arsenic	302500	174.19
20024-90-2	1-ethyl-4-propylbenzene	-43100	473.33
630-18-2	2,2-dimethylpropanenitrile	-2500	331.21
1069-53-0	2,3,5-trimethylhexane	-242600	475.01
112-70-9	1-tridecanol	-460100	715.76
50341-35-0	2,2-dibromobutane	-81980	375.03
1119-51-3	5-bromo-1-pentene	5230	397.21
50623-57-9	butyl nonanoate	-627400	719.51
62016-90-4	1-chlorooctatriacontane	-834890	1698.1
1653-34-5	2-pentadecanol	-510440	819.08
62185-18-6	2,2,4,4-tetramethyl-3-isopropylpentane	-216400	504.93
5451-75-2	octadecyl formate	-717600	959.13
7783-54-2	nitrogen trifluoride	-132090	260.78
66577-00-2	1,2,6,8-tetramethylnaphthalene	51300	509.67
62184-62-7	2,4,5-trimethylnonane	-301100	596.83
45313-33-5	hexatriacontylamine	-752580	1609.9
112-27-6	triethylene glycol	-725090	559.34
1608-26-0	phosphine, tris(dimethylamino)	-288700	1475.05
108-46-3	resorcinol	-274900	344.53
75-08-1	ethyl mercaptan	-46000	288.33
52670-34-5	2,3,6,7-tetramethyloctane	-305200	581.74
62185-17-5	2,2,3,4-tetramethyl-3-isopropylpentane	-233700	503.93
7783-50-8	iron (III) fluoride	-820900	304.22
2532-65-2	1,cis-2,cis-3,cis-4-tetramethylcyclopentane	-229630	329.07
637-92-3	ethyl tert-butyl ether	-316500	398.41
13281-11-3	2-nonanethiol	-199800	563.08
62168-42-7	1-bromo-2,2-dimethylbutane	-146120	431.24
18231-53-3	3,3-dimethyl-2-ethyl-1-butene	-101560	419.99
1119-16-0	4-methylpentanal	-256000	405.65
31805-48-8	3-methyl-2-ethylthiophene	30890	383.69
600-10-2	1,2-dichloro-3-methylbutane	-188570	398.56
18435-22-8	3-methyltetradecane	-358210	730.76
61886-71-3	1-methyl-8-ethylnaphthalene	69000	456.09
66214-22-0	diethylnonacosylamine	-656920	1457.5
7789-27-7	thallium (I) fluoride	-182400	
62199-66-0	2,3,3,4,4-pentamethylheptane	-282800	536.13
62183-92-0	3,4-diethyloctane	-289600	599.18
61868-50-6	2,3,3,5-tetramethylheptane	-277100	538.23
86-73-7	fluorene	183300	381.21
10136-83-1	1-methyl-6-isopropylnaphthalene	51300	509.67
61868-76-6	2,2,5-trimethyl-3-ethylhexane	-278700	530.85
106-47-8	p-chloroaniline	57300	356.45
99-09-2	m-nitroaniline	58500	382.19
15869-86-0	4-ethyloctane	-251080	541.74
871-83-0	2-methylnonane	-256500	539.32
66688-44-6	1,3-difluoro-3-methylbutane	-547500	375.28
66291-79-0	dimethylpentacosylamine	-533080	1223.8
1795-26-2	1,cis-3,trans-5-trimethylcyclohexane	-206500	400.68
84869-41-0	heptadecyl butanoate	-794500	1033.7
26153-91-3	methyl-2,2-dimethylpropylamine	-124300	385.31
66688-33-3	2,2-diiodo-3-methylbutane	-6820	413.6
61394-27-2	3,trans-5-dimethylcyclopentene	-16700	354.03
104-72-3	decylbenzene	-137500	675.13
66553-16-0	2-ethyl-1,2-butanediol	-490200	419.69
62154-81-8	1-iodononacosane	-565020	1341.2
78-96-6	1-amino-2-propanol	-239000	364.28
5714-22-7	sulfur decafluoride	-2064390	396.95
25346-33-2	1-bromo-2-methylpentane	-146120	431.24
1123-73-5	2-methyl-3-ethylphenol	-181340	420.46
61064-08-2	3,4-dimethyl-1-pentyne	86100	391.93
52688-75-2	3-fluorohexane	-368560	411.89
62127-54-2	1-iodotricosane	-441180	1107.5
54004-43-2	1-methylbutyl propanoate	-541700	515.03
3982-67-0	1,3,5-trimethyl-2-ethylbenzene	-58300	458.57
61868-72-2	2,2,3-trimethyl-3-ethylhexane	-266500	521.46
106-99-0	butadiene (1,3 butadiene)	110000	278.83
71-23-8	propyl alcohol	-255200	322.54
595-41-5	2,3-dimethyl-3-pentanol	-354070	431.16
627-20-3	cis-2-pentene	-26300	347.37
13205-44-2	borane carbonyl	-111200	248.86
7440-24-6	strontium	164000	160.95
7439-94-3	lutetium	427600	184.49
61868-74-4	2,2,4-trimethyl-3-ethylhexane	-255200	529.84
16631-63-3	1-methyl-1-propylcyclopentane	-153370	525.68
693-67-4	1-bromoundecane	-244040	635.52
2882-97-5	2,3-dimethylpentadecane	-404770	799.14
62154-82-9	1-iodotriacontane	-585660	1380.2
66826-84-4	propyl undecyl sulfide	-290200	768.1
50586-18-0	cis-1-chloro-1-hexene	-65690	416.56
17059-55-1	2-methyl-7-ethylnaphthalene	60920	455.15
2443-04-1	1-methyl-cis-3-propylcyclopentane	-188950	413.79
66256-64-2	2,2,3,5-tetramethyl-3-hexanol	-424740	509.14
62016-46-0	2,2-dimethyl-4-ethylheptane	-282800	544.26
7440-17-7	rubidium	80900	170.02
143-08-8	1-nonanol	-378500	557.8
4283-80-1	2-bromo-2-methylpentane	-149590	401.89
52896-88-5	4-ethyl-2-methylheptane	-258240	528.69
97-85-8	isobutyl isobutyrate	-547000	511.67
14290-92-7	2,2-dimethyl-3-thiapentane	-144200	378.2
12030-14-7	indium (II) sulfide	238000	
63521-37-9	3-methyl-2,3-pentanediol	-503000	384.94
2613-66-3	1-methyl-cis-3-ethylcyclopentane	-168310	374.84
13510-35-5	indium (III) iodide	-120500	
816-79-5	3-ethyl-2-pentene	-83200	408.47
40775-09-5	heneicosylbenzene	-364080	1101.3
2398-09-6	1,cis-3-dimethylcyclobutane	-36200	312.73
13701-67-2	diborane, tetrachloro	-489110	359.09
7289-45-4	methyl tetradecyl sulfide	-307400	804.37
61868-14-2	1-hexatriacontene	-660940	1553.7
13540-50-6	2',5'-dimethyldiphenylmethane	101000	527.88
7783-72-4	vanadium (V) fluoride	-1433900	322.32
3937-56-2	1,9-nonanediol	-533550	608.35
354-23-4	1,2-dichloro-1,1,2-trifluoroethane	-718450	347.44
15890-40-1	1,cis-2,trans-3-trimethylcyclopentane	-188650	332.48
112-29-8	1-bromodecane	-223400	596.57
107-82-4	1-bromo-3-methylbutane	-125480	392.29
62198-58-7	2,3,5-trimethyl-4-ethylheptane	-285100	584.42
17302-40-8	3,3-diethyloctane	-292600	581.74
62184-20-7	3,3,6-trimethylnonane	-307400	591.47
23777-80-2	hexaborane	94600	
62185-24-4	3-methyl-4-tert-butylheptane	-275700	567.65
2050-24-0	1-methyl-3,5-diethylbenzene	-51200	476.68
33673-01-7	2-sec-butyl-1,3-propanediol	-490800	551.75
66577-16-0	1-methyl-3-isopropylnaphthalene	51300	509.67
7782-79-8	hydrazoic acid	294100	238.72
62199-23-9	2,3,3,5-tetramethyloctane	-297600	576.04
66793-97-3	2,3-dimethyl-3-ethyl-2-pentanol	-398820	479.72
112-20-9	nonylamine	-195200	561.36
16106-59-5	4,5-dimethyl-1-hexene	-93000	445.91
61868-38-0	3,5-dimethyl-4-ethylheptane	-263400	557.01
61868-11-9	1-tritriacontene	-599020	1436.8
3982-64-7	1,3-dimethyl-5-propylbenzene	-57300	466.29
66291-80-3	ethylpentacosylamine	-547140	1248.4
66793-93-9	2,4,5-trimethyl-2-hexanol	-400630	499.54
13287-19-9	2-methyl-3-isopropyloctane	-289700	589.79
3522-86-9	3-sec-butylphenol	-195790	456.05
61869-04-3	2,2-dimethyltridecane	-361680	701.41
1678-81-5	1,trans-2,cis-3-trimethylcyclohexane	-215450	391.36
105-30-6	2-methyl-1-pentanol	-322900	448.39
99-83-2	alpha-phellandrene	-9300	431.03
2883-02-5	nonylcyclohexane	-317100	657.17
507-09-5	thioacetic-acid	-181900	313.56
63126-48-7	3-ethyl-4-octanol	-412520	577.37
6006-34-4	tridecylcyclopentane	-354300	805.05
52670-32-3	2,3,5,6-tetramethylheptane	-283800	541.92
598-04-9	dibutyl sulfone	-509800	547.62
59006-05-2	1-fluoro-2,2-dimethylpropane	-351390	343.59
5161-04-6	1-methyl-4-isobutylbenzene	-53100	477.69
3017-69-4	1-bromo-2-methyl-1-propene	7870	352.12
623-42-7	methyl butanoate	-450700	399.58