CAS	name	Hf(g)	S0(g)
62199-72-8	2,3,4,5,5-pentamethylheptane	-290400	559.6
110-67-8	3-methoxypropionitrile	-79000	364.45
112-41-4	1-dodecene	-165400	621.78
612-00-0	1,1-diphenylethane	141360	471.29
66214-19-5	1,1-diiodotritriacontane	-575990	1543.1
87-66-1	1,2,3-benzenetriol	-446000	382.04
106-46-7	p-dichlorobenzene	22200	337.09
108-09-8	2-amino-4-methylpentane	-149500	403.62
66794-04-5	3-methyl-2-ethyl-1-hexanol	-391880	538.41
66214-30-0	diethyltriacontylamine	-677560	1496.5
75-98-9	2,2-dimethylpropanoic acid	-491000	413.83
1632-70-8	5-methylundecane	-295300	621.65
62184-13-8	2,5,6-trimethylnonane	-301800	597.5
17302-19-1	4-methyl-4-ethyloctane	-276800	560.03
69498-28-8	1,4-dibromo-2-methylbutane	-99150	443.33
629-99-2	pentacosane	-559330	1129.8
39220-65-0	1-nitropentadecane	-363690	820.58
66142-59-4	cis-1-bromo-1-undecene	-126820	628.94
62199-30-8	2,3,5,5-tetramethyloctane	-302700	578.05
57716-79-7	2-ethyl-1,4-butanediol	-472100	506.29
16747-31-2	3,3,4-trimethylhexane	-235400	468.3
19781-68-1	1-methyl-cis-2-ethylcyclopropane	-19500	377.47
7440-64-4	ytterbium	152300	173.6
107-02-8	acrolein	-84000	280.54
1314-11-0	strontium oxide	-13390	226.37
594-16-1	2,2-dibromopropane	-61340	336.08
2885-00-9	1-octadecanethiol	-377000	925.52
19655-60-8	6-ethylquinoline	178550	375.69
7783-77-9	molybdenum fluoride	-1557660	350.81
104-46-1	anethole	-41500	466.11
2016-57-1	decylamine	-215800	600.52
61828-07-7	docosylcyclohexane	-566930	1216.2
7784-18-1	aluminum fluoride	-1209320	276.72
3031-05-8	1,2,6-trimethylnaphthalene	57000	442.68
110-16-7	maleic acid	-675800	393.74
66326-20-3	methyleicosylamine	-423300	1014.7
5451-52-5	decyl formate	-552000	644.56
1678-93-9	butylcyclohexane	-213170	459.59
630-08-0	carbon monoxide	-110530	197.87
5683-44-3	3-methyl-2,4-pentanediol	-497700	428.61
61868-03-9	2,3-dimethylheptadecane	-446050	877.05
66827-05-2	trans-1-chloro-1-tetradecene	-230810	728.18
1632-16-2	2-ethyl-1-hexene	-97400	458.52
16416-41-4	trans-1-bromo-3-methyl-1-butene	-8260	385.7
680-31-9	hexamethyl phosphoramide	-467000	
28467-75-6	2-tridecyne	-39350	634.13
616-42-2	dimethyl sulfite	-484300	
7787-52-2	beryllium hydride	125520	173.18
14691-44-2	trigermane	226800	
7647-17-8	cesium chloride	-240160	256.15
18936-17-9	2-methylbutanenitrile	4600	360.39
493-01-6	cis-decahydronaphthalene	-169200	378.92
17302-11-3	3-ethylnonane	-272700	576.8
2079-95-0	1-tetradecanethiol	-294400	768.91
62198-73-6	3,3,4-trimethyl-5-ethylheptane	-286600	567.65
6079-57-8	4,4-dimethyl-2-thiapentane	-143100	381.89
646-04-8	trans-2-pentene	-31100	343.34
10028-15-6	ozone	142670	238.94
50-70-4	sorbitol	-1140000	645.66
62184-50-3	2,2,4-trimethylnonane	-305600	585.09
66291-74-5	1,1-diiodooctacosane	-472790	1348.4
690-93-7	2,2-dimethyl-trans-3-hexene	-109500	390.24
123-86-4	butyl acetate	-485300	443.43
62016-84-6	1-chlorodotriacontane	-714890	1451.5
5171-84-6	3,3,4,4-tetramethylhexane	-252590	489.82
638-60-8	2-tetradecene	-59990	803.76
62183-89-5	3-methyl-5-isopropyloctane	-299000	595.49
66794-00-1	2,3-dimethyl-2-heptanol	-395350	509.07
62199-32-0	2,3,5,7-tetramethyloctane	-308000	585.43
4616-73-3	eicosanenitrile	-291250	941.16
354-11-0	1,1,1,2-tetrachloro-2-fluoroethane	-357710	350.89
21570-35-4	2-methyl-4-heptanol	-371240	499.46
66292-51-1	trans-1-iodo-1-octadecene	-220760	906.18
295-02-3	cyclotridecane	-246400	
5166-35-8	3-chloro-2-methyl-1-butene	-51910	365.9
78-82-0	isobutyronitrile	24100	313.53
111-20-6	sebacic acid	-921900	641.31
66688-54-8	1,3-diiodo-2-methylbutane	-3350	442.95
617-94-7	2-phenyl-2-propanol	-305000	690.12
1119-87-5	1,2-dodecanediol	-600750	715.69
26533-36-8	2-nonadecanol	-593000	973.82
61868-29-9	2,5-dimethyl-5-ethylheptane	-283800	543.59
6702-10-9	dl-erythro-4-methyl-2,3-pentanediol	-497700	428.61
354-33-6	pentafluoroethane	-1105000	332.25
7194-86-7	nonatriacontane	-848290	1675.1
110-39-4	octyl butanoate	-608100	679.69
79-92-5	camphene	-28600	
110-33-8	dihexyl adipate	-1020000	903.89
62183-66-8	3,5-dimethyl-6-ethyloctane	-296300	593.81
66225-40-9	methylethylbutylamine	-120280	444.75
62155-03-7	2-tridecanethiol	-282300	720.03
112-52-7	1-chlorododecane	-314890	629.55
498-66-8	2-norbornene	90000	314.58
108-21-4	isopropyl acetate	-481700	390.86
294-62-2	cyclododecane	-230200	
618-46-2	m-chlorobenzoyl chloride	-165310	400.77
623-81-4	diethyl sulfite	-551600	
592-42-7	1,5-hexadiene	84100	372.9
108-03-2	1-nitropropane	-125500	350.6
61868-66-4	2,5-dimethyl-3-isopropylhexane	-275300	536.55
6418-41-3	3-methyltridecane	-337570	691.81
156-43-4	p-phenetidine	-103000	437.8
2141-59-5	trans-dicyano-1-butene	267000	373.25
624-72-6	1,2-difluoroethane	-447700	288.81
66688-50-4	1,1-diiodo-2-methylbutane	-3350	442.95
4088-36-2	ethyloctylamine	-196260	586.19
15306-27-1	1-heptacosene	-475180	1203.1
62016-28-8	2,2,6-trimethyloctane	-292200	544.6
10102-68-8	calcium iodide	-258150	327.57
66688-72-0	cis-1-chloro-1-nonene	-127610	533.41
75-56-9	1,2-propylene oxide	-92760	287.15
2050-77-3	1-iododecane	-172860	601.14
106-89-8	alpha-epichlorohydrin	-107800	319.7
66563-91-5	cis-1-chloro-1-heptadecene	-292730	845.03
3031-08-1	1,3,6-trimethylnaphthalene	57000	442.68
7803-62-5	silane	34310	204.64
13779-87-8	zirconium triiodide	-221750	397.91
7795-80-4	2-methyl-2,3-pentanediol	-506000	374.88
143-24-8	tetraethylene glycol dimethyl ether	-884000	729.88
3162-62-7	1,1-dichlorodecane	-295100	622.67
61828-27-1	nonacosylbenzene	-529200	1412.9
56535-63-8	4-bromo-cis-2-pentene	-8260	385.7
334-56-5	1-fluorodecane	-428200	582.76
66324-51-4	trans-1-bromo-1-tridecene	-168100	706.85
2219-79-6	2,4-dimethyl-6-ethylphenol	-213450	453.24
558-43-0	2-methyl-1,2-propanediol	-464000	291.21
110-66-7	pentyl mercaptan	-109800	415.52
109-43-3	dibutyl sebacate	-1060000	984.39
2423-01-0	1-butylcyclopentene	-61200	
6196-60-7	3-methyl-3-ethyl-1-pentene	-89700	431.09
4271-27-6	diethyldodecylamine	-306040	795.32
66553-45-5	cis-1-iodo-1-dodecene	-96920	672.47
17302-33-9	6-methylundecane	-295300	615.95
107-96-0	3-mercaptopropionic acid	-405940	438.38
5970-63-8	2-methyl-2-ethyl-1-pentanol	-369430	479.64
295-48-7	cyclopentadecane	-301400	
565-67-3	2-methyl-3-pentanol	-335200	403.98
62108-52-5	1-bromoheptatriacontane	-780680	1648.3
66827-09-6	trans-1-iodo-1-tetradecene	-138200	750.37
12058-07-0	molybdenum oxide	310960	241.86
4292-19-7	1-iodododecane	-214140	679.05
22331-38-0	eicosylcyclopentane	-498850	1079.4
4375-96-6	2-iodo-1-propene	87260	319.72
1310-58-3	potassium hydroxide	-232630	236.39
7319-00-8	1,trans-4-hexadiene	75480	378.53
3756-30-7	3-iodo-2-methyl-1-propene	66620	358.67
22768-19-0	3-methyl-cis-2-heptene	-105300	442.53
7440-37-1	argon	0	154.85
26533-33-5	2-methyl-3-nonanol	-412520	577.37
66291-49-4	cis-1-fluoro-1-decene	-328620	570.64
97-99-4	tetrahydrofurfuryl alcohol	-369200	373.42
53161-72-1	1,2-diiodobutane	11900	426.4
632-15-5	3,4-dimethylthiophene	52300	346.38
62016-70-0	1,1,cis-2,cis-3-tetramethylcyclopentane	-194050	440.96
62016-88-0	1-chlorohexatriacontane	-794890	1615.9
112-32-3	octyl formate	-510600	565.92
19447-29-1	2-nonyne	43210	478.32
123-92-2	isopentyl acetate	-511200	475.2
498-23-7	citraconic acid	-740000	435.27
2769-64-4	butyl isocyanide	40000	429.49
109-75-1	vinylacetonitrile	157800	303.93
13709-59-6	thorium (IV) fluoride	-1759000	339.99
62127-62-2	1,1,1-tribromobutane	-55650	426.08
62198-84-9	2,2,3,4,5-pentamethylheptane	-294000	558.93
66256-65-3	2,2,4,4-tetramethyl-3-hexanol	-424740	509.14
107-39-1	2,4,4-trimethyl-1-pentene	-111300	406.13
2131-42-2	1,4,6-trimethylnaphthalene	57000	442.68
296-44-6	cyclononadecane	-440910	
61868-01-7	1-methyl-cis-2-isopropylcyclopentane	-194230	404.27
66688-52-6	1,2-diiodo-2-methylbutane	-1540	423.13
7731-28-4	cis-4-methylcyclohexanol	-347500	380.84
4265-25-2	2-methylbenzofuran	-8250	303.82
19264-94-9	3,3-dimethyl-1-pentanol	-348790	440.69
17373-27-2	dimethylnonylamine	-202840	600.56
97-95-0	2-ethyl-1-butanol	-320900	445.4
62126-83-4	1-fluorohexacosane	-776080	1200.5
10102-43-9	nitric oxide	90290	210.76
66214-29-7	tetratriacontylamine	-711300	1532
20278-84-6	2,4,5-trimethylheptane	-260540	518.59
507-19-7	2-bromo-2-methylpropane	-133800	332.61
95-49-8	o-chlorotoluene	18200	348.49
4110-50-3	ethyl propyl sulfide	-104400	413.17
19031-61-9	3-fluoro-3-methylpentane	-372030	382.54
18435-53-5	1-triacontene	-537100	1320
10315-59-0	ethyl methyl sulfite	-517900	
77-78-1	dimethyl sulfate	-687500	335.06
571-58-4	1,4-dimethylnaphthalene	82510	402.21
66563-89-1	cis-1-bromo-1-heptadecene	-250660	862.66
62108-56-9	1,1,1-trichlorodecane	-307300	637.67
78-88-6	2,3-dichloropropene	-47900	336.34
53434-75-6	trans-1-bromo-1-nonene	-85540	551.04
4923-77-7	1-methyl-cis-2-ethylcyclohexane	-196000	430.73
918-02-5	dimethyl-tert-butylamine	-105500	376.62
2313-65-7	3-methyl-2-hexanol	-350600	460.51
61828-08-8	tricosylcyclohexane	-587570	1255.1
66214-13-9	1,1-diiododotriacontane	-555350	1504.2
62198-85-0	2,2,3,4,6-pentamethylheptane	-302000	558.26
60595-37-1	trans-1-iodo-1-heptene	6280	477.71
115-07-1	propylene	19700	266.71
627-05-4	1-nitrobutane	-143900	379.02
611-15-4	o-methylstyrene	118400	374.35
66576-96-3	dimethylhexatriacontylamine	-760120	1652.3
544-13-8	glutaronitrile	170000	367.51
320-60-5	2,4-dichlorobenzotrifluoride	-651450	440.01
111-14-8	heptanoic acid	-538000	469.16
392-56-3	hexafluorobenzene	-957300	381.2
33693-78-6	1,1-dibromo-2-methylpropane	-83790	394.85
10574-36-4	3-methyl-cis-2-hexene	-84300	404.78
62198-94-1	2-methyl-4,5-diethylheptane	-295800	585.43
75-69-4	trichlorofluoromethane	-283700	309.94
52897-11-7	2,3,3,5-tetramethylhexane	-258700	496.26
5161-76-2	3,3-dimethylthiacyclopentane	-91800	
62183-85-1	4-methyl-5-propyloctane	-291900	599.85
62198-80-5	2,2,3,3,4-pentamethylheptane	-286600	538.14
92-94-4	p-terphenyl	277000	525.04
14130-15-5	heneicosylamine	-442980	1025.6
7789-59-5	phosphorus (V) oxybromide	-389110	359.85
1333-82-0	chromium (VI) oxide	-292880	266.37
42328-76-7	2,4-dimethyl-2-hexanol	-374710	470.11
56134-53-3	1-chlorohexacosane	-594890	1204.9
506-78-5	cyanogen iodide	225940	257.34
66827-03-0	trans-1-bromo-1-tetradecene	-188740	745.8
29136-19-4	nonadecylbenzene	-322800	1023.4
66292-27-1	1,1-diiodooctadecane	-266390	958.85
19550-48-2	1,4-dimethylcyclopentene	-22700	365.1
2717-39-7	1,4,5,8-tetramethylnaphthalene	51300	509.67
879-12-9	1,2,3-trimethylnaphthalene	57000	442.68
108-38-3	m-xylene	17300	358.55
7758-94-3	ferrous chloride	-141000	299.26
6236-88-0	1-methyl-trans-4-ethylcyclohexane	-206000	397.19
19489-10-2	1-methyl-cis-3-ethylcyclohexane	-207800	391.15
2051-30-1	2,6-dimethyloctane	-261120	528.72
629-06-1	1-chloroheptane	-214890	424.06
7440-52-0	erbium	317100	195.29
62016-16-4	2-methyl-3-ethyloctane	-274600	566.4
61886-64-4	3-octadecyne	-142550	828.89
594-56-9	2,3,3-trimethyl-1-butene	-86900	376.47
2639-64-7	nonyl butanoate	-628900	718.84
62017-38-3	1,1-dichlorohexatriacontane	-823130	1615.6
488-17-5	1,2-dihydroxy-3-methylbenzene	-305900	375.2
124-40-3	dimethylamine	-18600	270.52
56255-50-6	2-methyl-1,2-hexanediol	-516000	441.33
17312-57-1	3-methyldodecane	-316930	652.86
79-09-4	propanoic acid	-452800	325.63
540-54-5	1-chloropropane	-131900	318.49
827-52-1	cyclohexylbenzene	-20920	429.36
62198-66-7	2,4,5-trimethyl-4-ethylheptane	-290600	571.01
66271-75-8	1,1-diiodohexadecane	-225110	880.95
865-58-7	3-bromo-3-methyl-1-butene	-3520	358.34
629-60-7	tridecanenitrile	-146770	668.49
7697-37-2	nitric acid	-134310	266.41
62183-93-1	3,5-diethyloctane	-295100	604.21
7440-50-8	copper	337600	166.38
1345-25-1	iron (II) oxide	251040	241.9
7294-05-5	2,2,3-trimethyl-3-pentanol	-378180	440.77
66455-35-4	propyl heptadecyl sulfide	-413880	1002.7
62198-89-4	3,5-dimethyl-4-isopropylheptane	-269600	577.04
354-14-3	1,1,2,2-tetrachloro-1-fluoroethane	-357710	350.89
66793-81-5	5-methyl-2-octanol	-391880	538.41
17312-64-0	2,2-dimethylundecane	-320400	623.51
29369-63-9	methyltetradecylamine	-299460	780.96
7439-98-7	molybdenum	658100	181.64
1120-36-1	1-tetradecene	-207300	700.42
594-38-7	2-iodo-2-methylbutane	-78410	367.51
62199-88-6	2,2-dimethyl,3,3-diethylhexane	-262600	548.54
5454-24-0	undecyl formate	-572700	684.05
36880-72-5	3-ethyl-cis-2-hexene	-104000	446.89
2870-04-4	2-ethyl-m-xylene	-26230	421.67
66291-45-0	trans-1-iodo-1-pentadecene	-158840	789.32
112-18-5	dimethyldodecylamine	-264760	717.42
75-65-0	tert-butanol	-312400	326.81
61868-46-0	2,2,4,6-tetramethylheptane	-291100	532.19
3965-59-1	2,4-dimethyl-1-hexanol	-371240	499.46
66271-71-4	cis-1-fluoro-1-hexadecene	-452460	804.35
598-29-8	1,2-diiodopropane	35980	396.14
2613-69-6	1,cis-2,cis-3-trimethylcyclopentane	-188650	332.48
112-14-1	octyl acetate	-567900	600.38
7611-87-2	trans-1-chloro-1-butene	-24410	338.65
62016-79-9	1-chloroheptacosane	-614890	1246
877-43-0	2,6-dimethylquinoline	167080	369.52
3031-16-1	1,2,5,8-tetramethylnaphthalene	51300	509.67
7719-89-3	N-hexahexacontane	-1405600	2726.9
62155-06-0	2-octadecanethiol	-385400	916.47
18435-55-7	1-dotriacontene	-578380	1397.9
13709-47-2	scandium fluoride	-1247000	295.18
13780-57-9	sulfur chloride pentafluoride	-1038890	319.93
7440-58-6	hafnium	618400	186.94
62127-30-4	2-fluoro-2-methylpentane	-372030	382.54
5911-04-6	3-methylnonane	-254700	543.01
61868-20-0	2-methyl-1-octadecene	-319850	887.33
61847-83-4	1-tricosyne	-226150	1021.4
1454-85-9	1-heptadecanol	-543100	871.7
90023-96-4	methyl-2-methylbutylamine	-112200	443.6
71-43-2	benzene	82900	269.18
17312-53-7	3,6-dimethyldecane	-299900	613.6
32341-92-7	2-methyl-1,1-diphenylethane	103600	512.49
66359-77-1	ethyltricosylamine	-505860	1170.5
3970-62-5	2,2-dimethyl-3-pentanol	-354070	431.16
3228-02-2	3-methyl-4-isopropylphenol	-207260	449.88
619-82-9	1,4-cyclohexanedicarboxylic acid	-877000	455.46
17302-39-5	3-methyl-3-ethylnonane	-297600	596.16
66553-43-3	cis-1-fluoro-1-dodecene	-369900	648.54
17851-27-3	1,2,4-trimethyl-6-ethylbenzene	-59100	462.6
27802-85-3	3,4,7-trimethylnonane	-299700	603.88
3386-33-2	1-chlorooctadecane	-434890	876.14
25658-42-8	zirconium nitride	713370	233.62
66292-49-7	trans-1-fluoro-1-octadecene	-493740	882.26
623-55-2	5-methyl-3-hexanol	-350600	460.51
62184-73-0	2-methyl-3-ethylnonane	-295300	605.55
100-21-0	terephthalic acid	-717900	449.47
3495-46-3	3-amino-3-methylpentane	-152100	369.01
421-07-8	1,1,1-trifluoropropane	-702330	329.07
66326-13-4	heneicosanenitrile	-311890	980.11
61886-62-2	3-hexadecyne	-101270	750.98
1649-08-7	1,2-dichloro-1,1-difluoroethane	-528400	349.69
19781-69-2	1-methyl-trans-2-ethylcyclopropane	-23500	364.05
2473-01-0	1-chlorononane	-254890	506.25
109-74-0	butyronitrile	33500	325.93
78-69-3	3,7-dimethyl-3-octanol	-415990	548.02
32341-91-6	3-methyl-1,1-diphenylethane	103600	512.49
53971-47-4	2,2,3-trimethylthiacyclopropane	-21210	
625-67-2	2,4-dichloropentane	-188570	398.56
29887-11-4	2-ethyl-1,3-pentanediol	-499400	690.4
66214-11-7	ethylnonacosylamine	-629700	1404.2
62199-73-9	2,4,4,5,5-pentamethylheptane	-293100	538.81
62168-13-2	1,1-dibromotetratriacontane	-697710	1572.9
616-39-7	methyldiethylamine	-76500	375.23
61868-63-1	2,2-dimethyl-3-isopropylhexane	-257900	525.82
62017-16-7	1,1-dichlorohexane	-212600	464.04
62168-36-9	1,1-dibromononadecane	-388110	988.66
75-44-5	carbonyl chloride	-220080	283.8
66271-55-4	propyl tridecyl sulfide	-331460	846.28
1708-29-8	2,5-dihydrofuran	-108800	284.81
62016-75-5	1-chloroheptadecane	-414890	835.04
16130-73-7	diheptadecylamine	-691620	1521
2612-29-5	2-ethyl-1,3-propanediol	-456000	619.61
998-65-2	5-ethyl-1-heptanol	-386600	547.94
108-99-6	3-methylpyridine	106400	325.34
100-25-4	p-dinitrobenzene	50800	376.5
5911-05-7	4-ethylnonane	-272500	581.16
620-85-9	4-ethyldiphenylmethane	112300	533.49
1459-09-2	1-phenylhexadecane	-261120	910.22
59128-91-5	3-iodo-3-methyl-1-butene	47020	362.91
14255-24-4	4-methyl-cis-3-heptene	-105300	442.53
61868-81-3	2,3,5-trimethyl-3-ethylhexane	-273000	514.41
23418-37-3	4-methyl-4-octanol	-390070	518.59
62016-78-8	1-chloropentacosane	-574890	1163.8
117-84-0	dioctyl phthalate	-966720	1151.3
62198-74-7	3,3,5-trimethyl-4-ethylheptane	-269300	573.02
99-99-0	p-nitrotoluene	31000	382.62
13151-17-2	5-methyl-cis-2-hexene	-77800	406.09
74-98-6	propane	-104700	270.28
7385-78-6	3,4-dimethyl-1-pentene	-74800	398.78
55930-45-5	1,4-diiodopentane	1930	452.47
108-75-8	2,4,6-trimethylpyridine	20000	394.26
19550-82-4	3,4-dimethyl-trans-2-hexene	-109700	435.95
62184-93-4	2,4-dimethyl-3,4-diethylhexane	-265900	562.62
75-03-6	ethyl iodide	-8400	295.63
7787-60-2	bismuth trichloride	-265700	358.79
111-76-2	2-butoxyethanol	-441000	480.19
584-84-9	toluene diisocyanate	-226150	402.53
2051-31-2	4-decanol	-407240	586.89
625-45-6	methoxyacetic acid	-563000	361.46
621-77-2	tripentylamine	-285400	756.37
20816-12-0	osmium tetroxide	-337200	294.39
922-28-1	3,4-dimethylheptane	-233800	495.14
5396-58-7	2-methyl-2,3-butanediol	-498000	293.53
105-45-3	methyl acetoacetate	-589000	443.25
100-40-3	vinylcyclohexene	65100	377.54
2370-12-9	2,2-dimethyl-1-pentanol	-348790	440.69
19218-94-1	1-iodotetradecane	-255420	756.95
564-02-3	2,2,3-trimethylpentane	-220000	423.78
6305-71-1	2,4-dimethyl-1-pentanol	-350600	460.51
52896-89-6	4-ethyl-3-methylheptane	-250500	531.64
66291-44-9	cis-1-iodo-1-pentadecene	-158840	789.32
6117-98-2	2,3-dimethyldodecane	-342850	682.28
4132-72-3	1,4-dimethyl-2-isopropylbenzene	-55600	462.6
62016-23-3	4-methyl-3-ethyloctane	-271700	563.38
353-61-7	2-fluoro-2-methylpropane	-330750	304.63
45124-35-4	diethylnonylamine	-244120	678.47
812-04-4	1,1-dichloro-1,2,2-trifluoroethane	-718450	347.44
66731-94-0	4-methyl-5-ethyl-3-heptanol	-417800	567.84
7664-41-7	ammonia	-45900	192.78
16331-21-8	1-bromooctacosane	-594920	1297.7
2613-65-2	1-methyl-trans-3-ethylcyclopentane	-168310	374.84
62108-83-2	1-fluorononacosane	-838000	1317.3
7719-83-7	N-dohexacontane	-1323000	2571
59570-06-8	ethyltridecylamine	-299460	780.96
61868-82-4	2,3,5-trimethyl-4-ethylhexane	-267300	542.59
599-64-4	p-cumylphenol	-65600	534.47
66326-16-7	1-chloroheneicosane	-494890	999.44
7783-07-5	hydrogen selenide	29700	219.41
491-35-0	4-methylquinoline	199190	336.74
66688-56-0	1-iodo-trans-2-pentene	47560	399.8
7693-26-7	potassium hydride	123010	198.04
103-70-8	formanilide	-55200	329.35
19549-70-3	2,2-dimethyl-3-heptanol	-395350	509.07
62127-56-4	1-iodopentacosane	-482460	1185.4
575-37-1	1,7-dimethylnaphthalene	81800	410.5
10476-81-0	strontium bromide	-407100	319.73
19812-64-7	1,14-tetradecanediol	-636750	803.12
4850-28-6	1,cis-2,trans-4-trimethylcyclopentane	-188650	332.48
628-80-8	methyl pentyl ether	-279100	430.28
3524-73-0	5-methyl-1-hexene	-69800	407.36
123-01-3	dodecylbenzene	-179000	753.11
96-48-0	gamma-butyrolactone	-379000	305.85
61868-27-7	2,5-dimethyl-3-ethylheptane	-278600	557.68
62017-32-7	1,1-dichlorotriacontane	-699290	1381.9
110-65-6	2-butyne-1,4-diol	-155000	358.54
594-34-3	1,2-dibromo-2-methylpropane	-81980	375.03
66271-68-9	trans-1-bromo-1-hexadecene	-230020	823.7
40723-63-5	1,1,2,2-tetrafluoropropane	-903720	351.24
66375-03-9	dimethylheneicosylamine	-450520	1068
106-27-4	3-methylbutyl butanoate	-551500	554.18
359-11-5	trifluoroethene	-490800	292.46
7440-39-3	barium	179080	170.77
120-94-5	N-methylpyrrolidine	-8120	329.68
66563-84-6	ethylnonylamine	-216900	625.15
95-92-1	diethyl oxalate	-739800	528.63
762-62-9	4,4-dimethyl-1-pentene	-80400	354.1
62198-60-1	2,3,6-trimethyl-3-ethylheptane	-300800	568.32
62127-11-1	1,1-difluorodocosane	-913100	1005.8
14130-06-4	docosylamine	-463620	1064.6
97-64-3	ethyl lactate	-635000	456.54
13444-87-6	nitrosyl bromide	82130	273.53
4737-41-1	1-chloro-2-ethylbutane	-188190	413.61
1603-53-8	1,1-diphenyldodecane	-99000	
7440-32-6	titanium	473630	180.26
10049-04-4	chlorine dioxide	98040	269.33
61828-36-2	dl-threo-2,3-pentanediol	-481000	368.26
79-01-6	trichloroethylene	-9600	325.24
66214-24-2	ethylhentriacontylamine	-670980	1482.1
108-89-4	4-methylpyridine	102100	319.3
753-89-9	1-chloro-2,2-dimethylpropane	-189000	285.01
287-27-4	thiacyclobutane	61000	285.35
62017-30-5	1,1-dichlorooctacosane	-658010	1304
111-47-7	dipropyl sulfide	-125200	451.45
62184-61-6	2,4,4-trimethylnonane	-302500	586.44
106-31-0	butyric anhydride	-660650	548.47
62168-34-7	1,1-dibromoheptadecane	-346830	910.76