CAS	name	Hf(g)	S0(g)
7440-45-1	cerium	423000	199.45
59654-13-6	2-iodohexane	-95580	435.81
1649-73-6	1-fluorooctadecane	-593200	900.34
15869-93-9	3,5-dimethyloctane	-258240	531.64
22417-45-4	4-methyl-2-isobutyl-1-pentanol	-468330	565.86
62126-79-8	1-fluorodocosane	-693520	1044.6
354-09-6	2-fluoro-2,3-dimethylbutane	-372030	382.54
625-54-7	ethyl isopropyl ether	-285800	380.73
463-51-4	ketene	-47700	241.72
62185-47-1	3,4-dimethyl-4-isopropylheptane	-280300	572.35
2437-25-4	dodecanenitrile	-126130	629.54
275-51-4	azulene	279900	338.63
57094-91-4	1-iodohentriacontane	-606300	1419.1
30388-40-0	3-methyl-4-propylphenol	-201980	459.41
17302-21-5	4,4-diethylheptane	-271700	543.93
66577-63-7	cis-1-fluoro-1-heptadecene	-473100	843.31
61868-52-8	2,3,4,4-tetramethylheptane	-271500	532.86
616-31-9	3-pentanethiol	-117000	410.15
3173-53-3	cyclohexyl isocyanate	-140000	377.73
66225-35-2	2-methyl-2,4-hexanediol	-526000	415.98
677-56-5	1,1,1,2,2,3-hexafluoropropane	-1320100	287.82
109-78-4	hydracrylonitrile	-98300	331.33
62016-62-0	1,trans-2-dimethyl-1-ethylcyclopentane	-173710	483.32
460-36-6	1,1,1,3-tetrafluoropropane	-898440	360.77
66793-72-4	2,5,5-trimethyl-3-hexanol	-400630	499.54
7194-85-6	octatriacontane	-827650	1636.2
496-78-6	2,4,5-trimethylphenol	-192810	414.28
4445-06-1	octadecylcyclohexane	-484370	1060.4
629-45-8	dibutyl disulfide	-159900	571.41
61828-34-0	1,4-tridecanediol	-621390	754.64
62198-57-6	2,3,5-trimethyl-3-ethylheptane	-291400	576.04
631-65-2	2-chloro-3-methylbutane	-190000	307.55
62199-41-1	3,3,4,4-tetramethyloctane	-293300	549.21
106-50-3	p-phenylenediamine	91200	350.31
52896-99-8	4-ethyl-2,2-dimethylhexane	-260960	500.05
15679-01-3	1,cis-2-dimethylcyclobutane	-15500	382.16
110-89-4	piperidine	-48900	337.12
42910-16-7	triundecylamine	-656920	1457.5
66291-84-7	1,1-diiodoheptacosane	-452150	1309.4
5634-22-0	docosylbenzene	-384720	1140.2
25346-31-0	3-bromo-3-methylpentane	-149590	401.89
53750-52-0	4-iodo-2-methyl-1-butene	45980	397.62
96-34-4	methyl chloroacetate	-449000	372.17
102-87-4	tridodecylamine	-718840	1574.4
99-63-8	isophthaloyl chloride	-302000	463.84
38169-04-9	1-iodo-trans-2-butene	68200	360.85
638-02-8	2,5-dimethylthiophene	52100	353.09
536-78-7	3-ethylpyridine	85700	364.49
17057-94-2	2-methyl-4-ethylnaphthalene	63000	456.09
60247-14-5	methylethylisobutylamine	-125560	435.23
60435-70-3	2-methyl-1-heptanol	-365960	508.99
4957-14-6	4',4"-dimethyldiphenylmethane	101000	527.88
54068-75-6	cis-1-iodo-1-butene	68200	360.85
590-86-3	3-methylbutanal	-236500	362.87
66576-94-1	octatriacontylamine	-793860	1687.8
97-93-8	triethyl aluminum	-163600	
62108-82-1	1-fluorooctacosane	-817360	1278.4
680-00-2	1,1,2,2,3,3-hexafluoropropane	-1402300	401.15
10294-34-5	boron trichloride	-402960	290.24
142-84-7	di-propylamine	-116000	430.15
7732-18-5	water	-241830	188.84
61868-13-1	1-pentatriacontene	-640300	1514.7
123-72-8	butyraldehyde	-207000	343.71
66324-43-4	1,1-diiodotridecane	-163190	764.09
99-85-4	gamma-terpinene	-11700	456.52
14686-14-7	trans-3-heptene	-73500	423.33
109-86-4	2-methoxyethanol	-434000	359.38
13023-60-4	2,2-diethyl-1-butanol	-369430	479.64
62185-36-8	3,5-dimethyl-4-propylheptane	-283900	594.82
53120-74-4	3,3-dimethyl-1,5-pentanediol	-502000	488.29
76-02-8	trichloroacetyl chloride	-305930	369.68
527-35-5	2,3,5,6-tetramethylphenol	-224920	447.07
564-03-4	3,4,4-trimethyl-1-pentene	-101500	399.69
1599-67-3	1-docosene	-371980	1008.4
2445-76-3	hexyl propanoate	-544300	560.89
627-13-4	propyl nitrate	-174050	386
2768-16-3	5-methyl-1-nonanol	-407240	586.89
66455-62-7	cis-1-chloro-1-eicosene	-354650	961.89
354-25-6	1-chloro-1,1,2,2-tetrafluoroethane	-898820	345.71
111-27-3	1-hexanol	-316800	440
60899-39-0	2-dodecylnaphthalene	-124530	778.42
66455-47-8	1,1-diiodoeicosane	-307670	1036.8
96-14-0	3-methylpentane	-172000	383.04
19781-10-3	2,3-dimethyl-3-octanol	-415990	548.02
115-76-4	2,2-diethyl-1,3-propanediol	-492000	521.83
13863-59-7	bromine fluoride	-58460	228.97
62155-16-2	2',3'-dimethyldiphenylmethane	101000	527.88
10042-59-8	2-propyl-1-heptanol	-407240	586.89
79-38-9	chlorotrifluoroethylene	-505400	322.23
2425-54-9	1-chlorotetradecane	-354890	711.75
62168-03-0	1,1-dibromotetracosane	-491310	1183.4
66675-35-2	trans-1-fluoro-1-butene	-204780	336.93
2198-72-3	4-propyl-4-heptanol	-410710	557.54
84-74-2	dibutyl phthalate	-750900	901.56
4200-95-7	heptadecylamine	-360000	875.6
631-28-7	1,2,3-tribromo-2-methylpropane	-55650	426.08
6931-70-0	2,3-dimethyl-2,3-pentanediol	-528800	388.88
54630-50-1	5-methyl-2-heptanol	-371240	499.46
62016-20-0	3-methyl-4-ethyloctane	-271700	569.08
6418-45-7	3-methylnonadecane	-461410	925.52
110-15-6	succinic acid	-822900	403.03
18720-65-5	5-methyl-3-heptanol	-371240	499.46
66794-06-7	4-methyl-2-ethyl-1-hexanol	-391880	538.41
62185-04-0	2,2,4,5-tetramethyl-3-ethylhexane	-276900	551.55
101947-30-2	1,1 difluorodisulfane	-401410	292.83
536-74-3	ethynylbenzene	327300	322.58
112-66-3	dodecyl acetate	-650700	758
66324-54-7	cis-1-fluoro-1-tridecene	-390540	687.5
62168-07-4	1,1-dibromooctacosane	-573870	1339.2
630-07-9	pentatriacontane	-765730	1519.3
4753-80-4	thiacycloheptane	-65520	362.53
78-75-1	1,2-dibromopropane	-72800	376.53
62127-20-2	1,1-difluorohentriacontane	-1097600	1360.6
62017-24-7	1,1-dichlorodocosane	-534170	1070.3
66688-63-9	4-iodo-trans-2-pentene	42280	390.28
616-21-7	1,2-dichlorobutane	-162650	369.13
62108-86-5	1-fluorodotriacontane	-899920	1434.2
96-54-8	N-methylpyrrole	103100	307.53
90-00-6	o-ethylphenol	-145230	392.94
16644-98-7	trans-1-iodo-1-hexene	26920	438.75
22025-20-3	3,3-dimethyl-2-hexanol	-374710	470.11
2612-27-3	2-isopropyl-1,3-propanediol	-472000	506.62
4553-62-2	methylglutaronitrile	142000	389.89
13389-42-9	trans-2-octene	-94500	465.5
109-60-4	propyl acetate	-464800	402.93
62154-83-0	1-iododotriacontane	-626940	1458.1
62168-29-0	1,1-dibromododecane	-243630	716
78-79-5	isoprene	75800	314.96
56039-55-5	3,cis-4-dimethylcyclopentene	-4700	360.73
1511-82-6	1,1,1-trifluorooctadecane	-1011900	913.36
16789-46-1	3-ethyl-2-methylhexane	-234600	487.42
4443-55-4	eicosylcyclohexane	-525650	1138.3
75-01-4	vinyl chloride	28500	276.78
13709-35-8	difluorodisulfane	-336430	294.08
107-40-4	2,4,4-trimethyl-2-pentene	-107300	409.49
1679-09-0	2-methyl-2-butanethiol	-126800	387.01
31294-96-9	2-iodo-4-methylpentane	-100860	426.28
19907-40-5	1,trans-2,trans-3,cis-4-tetramethylcyclopentane	-229630	329.07
13465-78-6	silane, monochloro	-141840	250.75
100-71-0	2-ethylpyridine	78500	364.83
16747-38-9	2,3,3,4-tetramethylpentane	-236300	437.45
606-20-2	2,6-dinitrotoluene	-51100	
4166-46-5	2,3-dimethyl-3-hexanol	-374710	470.11
21102-09-0	4,4-dimethyl-3-ethyl-2-pentanol	-400630	499.54
112-80-1	oleic acid	-671780	913.09
61868-77-7	2,2,5-trimethyl-4-ethylhexane	-284900	529.84
66577-40-0	1,3-dimethyl-5-ethylnaphthalene	51300	509.67
66577-62-6	butyl tridecyl sulfide	-352790	885.33
88-18-6	2-tert-butylphenol	-199260	426.71
625-55-8	isopropyl formate	-424800	356.4
62198-92-9	2-methyl-3,5-diethylheptane	-297100	590.12
1075-38-3	1-methyl-3-tert-butylbenzene	-54600	436.1
37810-94-9	1,4-decanediol	-559470	637.78
66703-03-5	trans-1-iodo-1-pentene	47560	399.8
66213-69-2	cis-1-chloro-1-pentene	-45050	377.6
19781-11-4	2,7-dimethyl-4-octanol	-417800	567.84
99-89-8	4-isopropylphenol	-175150	417.1
42856-62-2	2-methyl-1,5-pentanediol	-474100	499.58
66374-96-7	1,1-diiodotetracosane	-390230	1192.6
61886-67-7	2-nonylnaphthalene	-58530	671.02
7796-36-3	cis-1-iodo-1-propene	88840	321.9
108-83-8	diisobutyl ketone	-357600	509.96
14610-37-8	methylisobutylamine	-93500	398.14
14130-12-2	octacosylamine	-587460	1298.3
123-39-7	N-methylformamide	-184430	280.98
74-85-1	ethylene	52500	219.18
2157-31-5	2,2-dimethyl-1,3-pentanediol	-507800	477.02
16900-08-6	butyl dodecyl sulfide	-332210	846.28
62184-41-2	3-methyl-4-ethylnonane	-292300	608.57
2586-89-2	3-heptyne	82800	411.72
62199-65-9	2,2,5,5,6-pentamethylheptane	-317600	544.17
25265-71-8	dipropylene glycol	-628000	512.34
123-15-9	2-methylpentanal	-256000	405.65
62184-27-4	3,5,7-trimethylnonane	-303200	598.51
38836-25-8	4-methyl-2,4-hexanediol	-506300	482.05
61847-91-4	1-hentriacontyne	-391270	1333
1560-89-0	2-methylheptadecane	-420130	847.62
124-19-6	1-nonanal	-310900	539.81
565-61-7	3-methyl-2-pentanone	-282200	412.29
3875-52-3	tert-butylcyclopentane	-177360	417.28
124-30-1	octadecylamine	-380600	914.75
7719-93-9	N-heptacontane	-1488100	2882.7
757-88-0	1,1-dimethylpropyl formate	-483300	412.57
591-78-6	2-hexanone	-279000	418.66
5877-76-9	ethylhexadecylamine	-361380	897.81
108-31-6	maleic anhydride	-398300	316.14
2415-72-7	propylcyclopropane	-17400	384.51
628-76-2	1,5-dichloropentane	-200000	343.85
302-01-2	hydrazine	95350	238.72
66213-83-0	cis-1-fluoro-1-pentene	-225420	375.88
598-76-5	1,1-dichloro-2-methylpropane	-167930	359.6
110-97-4	diisopropanolamine	-454000	513.89
66455-60-5	cis-1-bromo-1-eicosene	-312580	979.51
62184-23-0	3,4,5-trimethylnonane	-293100	597.5
62154-86-3	1-iodopentatriacontane	-688860	1575
53774-20-2	2-methyl-3-butenoic acid	-362200	438.24
12035-97-1	uranium monoxide	21000	
2244-07-7	undecanenitrile	-105490	525.24
62127-46-2	1,3,3-tribromobutane	-55650	426.08
585-34-2	3-tert-butylphenol	-199260	426.71
597-90-0	4-ethyl-4-heptanol	-390070	518.59
22539-65-7	1,2-dimethyl-3-isopropylbenzene	-49600	455.89
4038-04-4	3-ethyl-1-pentene	-67800	403.37
62199-35-3	2,4,4,6-tetramethyloctane	-300000	581.07
16747-33-4	2,3-dimethyl-3-ethylpentane	-233800	455.56
1002-69-3	1-chlorodecane	-274890	547.35
7789-66-4	tetrabromosilane	-415470	379.36
674-82-8	diketene	-190200	304.33
594-20-7	2,2-dichloropropane	-176700	325.45
490-65-3	1-methyl-7-isopropylnaphthalene	51300	509.67
10086-64-3	1-fluoro-2-methylbutane	-347920	372.93
62017-22-5	1,1-dichloroeicosane	-501400	1019.6
62185-28-8	4-ethyl-4-isopropylheptane	-280300	580.4
60212-29-5	2-undecyne	1930	556.22
5867-91-4	methyl propyl sulfate	-742000	464.68
110-17-8	fumaric acid	-671950	393.47
62184-47-8	4-methyl-6-ethylnonane	-297000	609.91
61847-95-8	1-hexatriacontyne	-494470	1527.8
98-06-6	tert-butylbenzene	-21630	396.85
13116-60-4	1,1,2,2-tetrachloropropane	-182240	358.15
1574-41-0	cis-1,3-pentadiene	82800	323.01
1305-62-0	calcium hydroxide	-610760	285.61
598-01-6	4-methyl-4-heptanol	-369430	479.64
65769-10-0	6,6-dimethyl-1-heptanol	-390070	518.59
110-59-8	valeronitrile	11460	366.16
67-63-0	isopropyl alcohol	-272700	309.13
3404-67-9	3-methyl-2-ethyl-1-pentene	-98800	446.95
763-29-1	2-methyl-1-pentene	-59300	381.83
7705-08-0	ferric chloride	-253130	344.19
17312-41-3	4-methyl-4-propyloctane	-297300	591.47
7446-11-9	sulfur trioxide	-395770	256.77
30213-29-7	3,cis-5-dimethylcyclopentene	-18700	354.03
62017-26-9	1,1-dichlorotetracosane	-575450	1148.2
1501-60-6	2-methyl-1,cis-3-pentadiene	65690	374.37
1190-22-3	1,3-dichlorobutane	-162650	369.13
13151-05-8	4-methyl-1-heptene	-88900	451.48
544-40-1	dibutyl sulfide	-167320	527.88
13361-63-2	4,4-dimethyl-1-pentyne	81700	382.87
62016-53-9	octadecylcyclopentane	-457570	1001.5
563-78-0	2,3-dimethyl-1-butene	-61500	372.77
61868-54-0	2,3,4,6-tetramethylheptane	-281700	541.24
20237-34-7	1,trans-3-hexadiene	75480	378.53
2051-05-0	dipentyl sulfite	-676300	
1825-14-5	dl-2,4-pentanediol	-479000	374.97
66359-41-9	propyl hexadecyl sulfide	-393250	963.54
7440-22-4	silver	284900	173.02
66213-97-6	methyloctacosylamine	-588420	1326.3
4432-77-3	ethyl-tert-butylamine	-134700	350.42
111-92-2	dibutylamine	-156600	502.86
66719-41-3	4-methyl-2-isopropyl-1-hexanol	-468330	565.86
99-35-4	1,3,5-trinitrobenzene	-37400	
10241-04-0	cobalt (III) chloride	-163590	334.15
294-41-7	cycloundecane	-179400	
7791-12-0	thallium chloride	-67800	
66292-50-0	cis-1-iodo-1-octadecene	-220760	906.18
627-31-6	1,3-diiodopropane	48490	384.1
23646-57-3	erythro-4,4-dimethyl-2,3-pentanediol	-516800	455.02
62198-70-3	2,5,5-trimethyl-3-ethylheptane	-300100	576.71
62185-06-2	2,2,5,5-tetramethyl-3-ethylhexane	-303400	547.53
66794-05-6	3-methyl-4-ethyl-3-hexanol	-395350	509.07
21895-16-9	3',4"-dimethyldiphenylmethane	97190	515.11
156-87-6	3-amino-1-propanol	-221000	367.64
62199-31-9	2,3,5,6-tetramethyloctane	-301500	590.12
110-19-0	isobutyl acetate	-494700	445.1
921-04-0	dimethyl-sec-butylamine	-102400	404.73
1795-18-2	tetradecylcyclohexane	-420400	854.51
107-03-9	propyl mercaptan	-67500	336.54
62184-16-1	2,6,7-trimethylnonane	-302000	598.85
157-40-4	spiropentane	185200	282.76
62108-85-4	1-fluorohentriacontane	-879280	1395.2
14852-31-4	2-hexadecanol	-531080	857.77
590-15-8	trans-1-bromo-1-propene	43900	303.64
92-51-3	bicyclohexyl	-272000	451.19
61868-89-1	2,3,3,4,4-pentamethylhexane	-262300	498.98
5867-95-8	butyl ethyl sulfate	-796400	
353-59-3	bromochlorodifluoromethane	-435200	317.693
7719-12-2	phosphorus (III) chloride	-287000	311.31
105-57-7	acetal	-453500	455.04
60-33-3	linoleic acid	-540000	904.47
560-23-6	2,3,3-trimethyl-1-pentene	-100800	422.54
13116-53-5	1,2,2,3-tetrachloropropane	-176960	367.67
598-56-1	dimethylethylamine	-50000	355.93
126-98-7	methacrylonitrile	98030	224.2
66577-32-0	butyl nonyl sulfide	-270370	729.05
506-30-9	eicosanoic acid	-806000	989.53
464-06-2	2,2,3-trimethylbutane	-204810	384.36
37549-89-6	2,4-dimethyl-cis-3-hexene	-108500	439.98
66213-73-8	cis-1-fluoro-3-methyl-1-butene	-230700	366.35
10557-44-5	2,5-dimethyl-cis-3-hexene	-103900	434.91
625-38-7	vinylacetic acid	-337200	405.73
62184-43-4	3-methyl-6-ethylnonane	-297800	612.26
764-84-1	1,1,1-trifluorododecane	-888090	679.64
2109-98-0	2,3-dimethylbutanal	-268200	372.92
62184-58-1	2,3,6-trimethylnonane	-302400	599.85
76-09-5	2,3-dimethyl-2,3-butanediol	-513000	333.69
62016-81-3	1-chlorononacosane	-654890	1328.2
91-20-3	naphthalene	150600	333.6
62127-25-7	1,1-difluorohexatriacontane	-1200100	1557.7
583-58-4	3,4-dimethylpyridine	70000	357.45
50273-84-2	5-bromo-cis-2-pentene	-2980	395.23
597-05-7	2-methyl-3-ethyl-3-pentanol	-374710	470.11
66291-57-4	1,1-diiododecane	-101270	647.24
110-71-4	1,2-dimethoxyethane	-346000	385.65
811-94-9	1,2,2-trifluoropropane	-702330	329.07
625-43-4	methyl-tert-butylamine	-108300	330.79
7727-15-3	aluminum bromide	-410450	349.47
486-34-0	1,2,7-trimethylnaphthalene	57000	442.68
7783-41-7	fluorine oxide	24520	247.46
534-22-5	2-methylfuran	-66300	308.99
638-53-9	tridecanoic acid	-660000	721.96
60302-21-8	4-tert-butylheptane	-272200	537.56
21895-13-6	2',3"-dimethyldiphenylmethane	101000	527.88
120-82-1	1,2,4-trichlorobenzene	-200	376.59
62016-85-7	1-chlorotritriacontane	-734890	1492.6
62127-28-0	1-fluoro-3-methylpentane	-368560	411.89
7439-93-2	lithium	159300	138.82
1191-25-9	hydroxycaproic acid	-683000	468.86
584-94-1	2,3-dimethylhexane	-213800	452.63
14720-74-2	2,2,4-trimethylheptane	-263840	505.98
7783-63-3	titanium (IV) fluoride	-1551430	314.89
62017-40-7	1,1-dichlorooctatriacontane	-864410	1693.5
14250-79-4	2,2-dimethyl-1-heptanol	-390070	518.59
62183-60-2	3,4-dimethyl-4-ethyloctane	-290800	581.74
54334-64-4	diethylundecylamine	-285400	756.37
6464-40-0	dl-threo-4-methyl-2,3-pentanediol	-487470	462.92
7789-25-5	nitrosyl fluoride	-65690	248.08
62016-89-1	1-chloroheptatriacontane	-1003100	1025.7
1489-47-0	4-methyl-1-nonanol	-407240	586.89
112-60-7	tetraethylene glycol	-882320	651.87
597-76-2	3-ethyl-3-hexanol	-369430	479.64
1119-86-4	1,2-decanediol	-559470	637.78
819-97-6	sec-butyl butanoate	-543000	519.39
464-07-3	3,3-dimethyl-2-butanol	-342800	360.78
61868-79-9	2,3,4-trimethyl-3-ethylhexane	-259800	534.87
32814-17-8	trans-1-fluoro-1-octene	-287340	492.73
4325-48-8	2-chloro-2-methylpentane	-191660	384.27
108-20-3	diisopropyl ether	-319400	399.76
7637-07-2	boron trifluoride	-1135620	254.42
42067-48-1	4-methyl-3-ethyl-cis-2-pentene	-101200	464.46
18295-27-7	2-iodo-3-methylbutane	-80220	387.33
66225-41-0	methylethyl-sec-butylamine	-125560	435.23
52897-10-6	2,3,3,4-tetramethylhexane	-253800	502.02
7440-61-1	uranium	533000	199.79
2141-58-4	cis-dicyano-1-butene	271000	379.95
16891-99-9	1-nitrododecane	-301770	703.72
12036-21-4	vanadium (IV) oxide	-232630	265.24
621-27-2	3-propylphenol	-169870	426.63
66325-82-4	1,1-diiodotricosane	-369590	1153.6
106-88-7	1,2-epoxybutane	-110000	322.51
66214-03-7	ethyloctacosylamine	-609060	1365.2
4088-37-3	diethyloctylamine	-223480	639.51
2219-73-0	2-methyl-4-ethylphenol	-181340	420.46
624-73-7	1,2-diiodoethane	66500	348.77
26186-00-5	1-heptadecyne	-103700	800.9
20150-89-4	5,7-dimethylquinoline	167080	369.52
7782-49-2	selenium (vitreous)	227100	176.94
4032-92-2	2,4,4-trimethylheptane	-261460	509.17
66359-43-1	ethylheptadecylamine	-382020	936.76
66214-12-8	methyltriacontylamine	-629700	1404.2
12057-24-8	lithium oxide	-166940	229.18
1081-77-2	nonylbenzene	-116800	635.98
499-75-2	2-methyl-5-isopropylphenol	-207260	449.88
53434-74-5	trans-1-bromo-1-heptene	-44260	473.13
13254-34-7	2,6-dimethyl-2-heptanol	-395350	509.07
66702-98-5	1-iodo-2-methyl-trans-2-butene	37770	395.64
1560-95-8	2-methyltetradecane	-358210	730.76
51065-65-7	6-methyl-trans-2-heptene	-101500	434.78
66794-46-5	1,2-dimethylpropyl formate	-468200	425.65
4914-89-0	3-methyl-cis-3-hexene	-81500	414.17
7440-62-2	vanadium	515470	182.26
123-31-9	p-hydroquinone	-261710	344.16
52897-06-0	3-ethyl-3,4-dimethylhexane	-251290	515.07
52112-25-1	2-pentadecyne	-80630	712.03
25276-70-4	1-pentadecanethiol	-315100	808.06
62183-64-6	3,5-dimethyl-4-ethyloctane	-283900	600.52
2801-84-5	2,4-dimethyldecane	-301500	607.9
13463-39-3	nickel carbonyl	-601580	415.54
19550-08-4	3,4-dimethyl-3-hexanol	-374710	470.11
78-40-0	triethyl phosphate	-1244700	
61828-20-4	pentatriacontylcyclohexane	-835250	1722.6
75-83-2	2,2-dimethylbutane	-184000	358.22
21102-13-6	2,3,4-trimethyl-2-hexanol	-400630	499.54
115-11-7	isobutene	-17100	293.12
1679-07-8	cyclopentanethiol	-47800	362.65
61828-09-9	tetracosylcyclohexane	-608210	1294.1
19182-13-9	1,6-diethylnaphthalene	51300	509.67
66213-86-3	1-fluoro-trans-2-pentene	-225420	375.88
66719-31-1	3,6-dimethyl-4-octanol	-417800	567.84
29576-14-5	1-bromo-trans-2-butene	17660	356.28
3074-76-8	3-ethyl-3-methylhexane	-231300	485.07
10403-60-8	2,3,3-trichlorobutane	-187140	363.68
62127-63-3	1,1,1-tribromohexane	-96930	503.98
110-12-3	5-methyl-2-hexanone	-304000	447.09
4292-75-5	hexylcyclohexane	-255100	538.8
993-00-0	methyl chlorosilane	-215000	298.78
542-88-1	bis(chloromethyl) ether	-241000	360.36
108-11-2	4-methyl-2-pentanol	-339200	436.21
1077-16-3	hexylbenzene	-54600	518.86
10361-92-9	yttrium chloride	-750200	
66291-91-6	ethyltetracosylamine	-526500	1209.4
62199-14-8	2,2,6-trimethyl-4-ethylheptane	-309700	570
66225-17-0	4-methyl-trans-2-heptene	-101500	434.78
60302-27-4	2,2,3,3,4,4-hexamethylpentane	-253700	457.06
4588-18-5	2-methyl-1-octene	-113450	497.81
7758-02-3	potassium bromide	-180080	250.55
7731-29-5	trans-4-methylcyclohexanol	-367200	380.84
591-87-7	allyl acetate	-334000	404.4
922-62-3	3-methyl-cis-2-pentene	-63000	379.14
62184-71-8	4-isopropylnonane	-295100	604.21
45165-81-9	methyltridecylamine	-278820	742
93716-28-0	3-ethyltetrahydrofuran	-238690	287.99
42764-74-9	2-methyl-1-heptadecene	-299210	848.38
28303-42-6	dodecyl formate	-593400	723.2
66688-53-7	1,2-diiodo-3-methylbutane	-3350	442.95
62126-82-3	1-fluoropentacosane	-755440	1161.5
813-75-2	1,2,2,3-tetrafluoropropane	-898440	360.77
66214-17-3	ethyltriacontylamine	-650340	1443.1
1842-05-3	1,1-dichloro-1,2-difluoroethane	-517060	325.27
78-85-3	methacrolein	-112000	335.12
2121-69-9	meso-2,4-dimethyl-1,5-pentanediol	-502830	511.4
24892-49-7	2,4-dimethyl-2,4-pentanediol	-531800	378.81
6366-35-4	1-chloro-2,2-dimethylbutane	-191660	384.27
62016-44-8	3,4,5-trimethyloctane	-272500	557.68
3525-25-5	3-ethyl-1-heptanol	-386600	547.94
96-49-1	ethylene carbonate	-505900	294.51
626-92-6	1,4-dichloropentane	-183290	408.08
60302-23-0	2,2,4,4,5-pentamethylhexane	-275400	508.04
66225-22-7	1,1-diiodooctane	-59990	569.33
10575-56-1	3,4,4-trimethyl-2-pentanol	-379990	460.59
62185-25-5	4-methyl-4-tert-butylheptane	-287000	552.9
62211-85-2	4,5,6-trimethylnonane	-292900	590.12
62126-89-0	1,1-difluorotetracontane	-1282100	1715.4
75-64-9	tert-butylamine	-120700	328.03
110-85-0	piperazine	22300	322.27
1647-08-1	4,4-dimethyl-1-hexene	-97200	405.93
367-11-3	o-difluorobenzene	-294500	320.83