CAS	name	Hf(g)	S0(g)
52897-16-2	3,3-diethyl-2-methylpentane	-248910	500.05
51932-19-5	methyl-1-methylbutylamine	-118300	423.14
594-39-8	1,1-dimethylpropylamine	-112700	392.98
54653-27-9	3,3-dibromopentane	-102620	413.98
66225-47-6	trans-1-fluoro-1-hexene	-246060	414.83
407-96-5	1,1-difluoroheptane	-604000	480.89
62199-21-7	2,2,6,7-tetramethyloctane	-315400	570
630-06-8	hexatriacontane	-786370	1558.3
21508-07-6	2,3-heptanediol	-515800	467.9
61828-03-3	1-methyl-trans-3-isopropylcyclopentane	-194230	404.27
10574-37-5	2,3-dimethyl-2-pentene	-87700	422.05
5161-77-3	2,cis-3-dimethylthiacyclopentane	-83100	
431-63-0	1,1,1,2,3,3-hexafluoropropane	-1301200	405.11
2211-67-8	dl-2,3-dichlorobutane	-167930	359.6
1814-88-6	1,1,1,2,2-pentafluoropropane	-1103300	353.59
2425-74-3	tert-butylformamide	-284000	375.64
119-36-8	methyl salicylate	-464300	456.11
66256-47-1	2,4,6-trimethyl-2-heptanol	-421270	538.49
7429-90-5	aluminum	329700	164.58
1636-43-7	5,6-dimethyldecane	-294900	604.88
21020-26-8	3-ethyl-1-pentyne	96800	397.96
66577-12-6	methylhexatriacontylamine	-753540	1637.9
20668-30-8	5,6-dimethylquinoline	167080	369.52
62185-07-3	2,3,3,4-tetramethyl-4-ethylhexane	-269900	543.17
18295-25-5	2-bromo-3-methylbutane	-130760	382.76
5341-95-7	meso-2,3-butanediol	-477000	418.66
2049-95-8	2-phenyl-2-methylbutane	-42590	439.19
66576-51-0	diethylhexatriacontylamine	-801400	1730.2
61828-33-9	hexatriacontylbenzene	-673680	1685.6
7758-95-4	lead chloride	-174050	317.22
4291-98-9	1-pentylcyclopentene	-82000	
627-97-4	2-methyl-2-heptene	-106600	438.17
2787-45-3	3-methyl-1,cis-3-pentadiene	65690	374.37
62199-10-4	2,2,5-trimethyl-3-ethylheptane	-297000	575.7
66827-02-9	cis-1-bromo-1-tetradecene	-188740	745.8
925-60-0	propyl acrylate	-364000	446.91
62127-66-6	1,1,1-tribromononane	-158850	620.84
10035-10-6	hydrogen bromide	-36440	198.7
1758-88-9	2-ethyl-p-xylene	-32180	437.26
594-52-5	2-bromo-2,3-dimethylbutane	-149590	401.89
97-62-1	ethyl isobutanoate	-499600	434.71
17302-38-4	3,3-dimethyldecane	-302800	599.52
62016-82-4	1-chlorotriacontane	-674890	1369.3
4209-91-0	3,5-dimethyl-3-hexanol	-374710	470.11
62184-17-2	2,7,7-trimethylnonane	-309700	586.44
62127-07-5	1,1-difluorooctadecane	-830900	917.62
18435-23-9	2,3-dimethyltetradecane	-384130	760.19
16724-63-3	dihexadecylamine	-650340	1443.1
1320-27-0	1-pentylnaphthalene	32430	538.12
7790-30-9	thallium iodide	7100	
626-95-9	1,4-pentanediol	-464000	417.09
3405-42-3	methyldipropylamine	-120280	444.75
3950-21-8	meso-2,4-pentanediol	-479000	374.97
594-57-0	2-chloro-2,3-dimethylbutane	-196940	374.74
57409-53-7	2,2,3-trimethyl-1-pentanol	-374710	470.11
66-25-1	hexanal	-248600	422.02
18835-32-0	1-tricosene	-392620	1047.3
32442-47-0	2-iodo-3-methyl-1-butene	40700	388.1
109-52-4	pentanoic acid	-497000	397.57
124-73-2	1,2-dibromotetrafluoroethane	-922990	387.72
75-61-6	dibromodifluoromethane	-386600	324.18
628-05-7	1-nitropentane	-157290	431.06
527-60-6	2,4,6-trimethylphenol	-192810	414.28
7790-89-8	chlorine monofluoride	-50290	217.94
6790-27-8	3-dodecyne	-18710	595.17
526-85-2	2,3,4-trimethylphenol	-192810	414.28
66256-67-5	2,3,4,4-tetramethyl-3-hexanol	-424740	509.14
7146-60-3	2,3-dimethyloctane	-256600	532.61
4609-89-6	2-nitropentane	-162570	421.53
62199-34-2	2,4,4,5-tetramethyloctane	-296800	571.01
7783-03-1	tungstic acid	-905840	351.95
27574-98-7	2,3,4,5,6-pentamethylheptane	-295400	557.59
13732-80-4	1-methyl-3,4-diethylbenzene	-54200	466.29
62198-88-3	2,2,3,6,6-pentamethylheptane	-321000	541.49
10076-31-0	dimethyl-2,2-dimethylpropylamine	-129030	405.88
66326-08-7	methylheneicosylamine	-443940	1053.6
354-15-4	1,1,2-trichloro-1,2-difluoroethane	-538080	349.16
24448-19-9	3-ethyl-2-hexanol	-371240	499.46
541-31-1	3-methyl-1-butanethiol	-114600	401.1
10342-97-9	methyldiisopropylamine	-130840	425.7
352-93-2	diethyl sulfide	-83200	368.32
62016-42-6	3,3,6-trimethyloctane	-286800	551.64
98-95-3	nitrobenzene	67600	358.89
10031-18-2	mercurous bromide	104180	271.41
62199-84-2	2,3,5-trimethyl-3-isopropylhexane	-283200	555.91
540-36-3	p-difluorobenzene	-307400	314.12
96-15-1	2-methylbutylamine	-122700	377.14
594-11-6	methylcyclopropane	25000	285.74
61868-25-5	2,4-dimethyl-4-ethylheptane	-276600	549.63
16746-86-4	2,3-dimethyl-1-hexene	-98100	449.3
930-89-2	1-methyl-cis-2-ethylcyclopentane	-168310	374.84
66225-14-7	4,5-dimethyl-trans-2-hexene	-106800	425.19
62183-68-0	3,6-dimethyl-4-ethyloctane	-296300	599.85
641-91-8	1,2,5-trimethylnaphthalene	57000	442.68
7611-86-1	cis-1-chloro-1-butene	-24410	338.65
7440-59-7	helium-4	0	126.15
62155-07-1	1-nonadecanethiol	-397600	965.01
18835-34-2	1-octacosene	-495820	1242.1
74508-07-9	indium (I) fluoride	-203400	
10025-87-3	phosphorus oxychloride	-559820	325.47
62016-80-2	1-chlorooctacosane	-634890	1287.1
52897-08-2	2,2,3,4-tetramethylhexane	-253340	495.72
53594-82-4	2,2-dimethylheptadecane	-444240	857.22
66719-47-9	2,2-dimethyl-4-ethyl-3-hexanol	-421270	538.49
112-15-2	diethylene glycol ethyl ether acetate	-776000	612.11
123-44-4	2,2,4-trimethyl-1-pentanol	-374710	470.11
66291-52-9	trans-1-iodo-1-decene	-55640	594.56
632-51-9	tetraphenylethylene	438000	694.68
61868-21-1	2,3-dimethyl-3-ethylheptane	-273200	542.25
4614-03-3	2-sec-butylnaphthalene	51300	509.67
2077-30-7	trans-1-methyl-4-(1-propenyl)benzene	92550	426.35
53778-43-1	1-methyl-1-ethylcyclopropane	-20000	375.79
66292-28-2	heptadecyl formate	-696900	919.98
625-58-1	ethyl nitrate	-153970	348.92
637-78-5	isopropyl propanoate	-501200	434.04
1613-46-3	propyl butyl sulfide	-145940	494.46
13423-15-9	3-methyltetrahydrofuran	-218050	249.04
593-60-2	vinyl bromide	78400	275.56
593-45-3	octadecane	-415120	861.54
39761-57-4	3,4,4-trimethyl-trans-2-pentene	-111700	411.53
62108-58-1	1,1,1-trichlorotetradecane	-389800	796.64
66553-42-2	trans-1-chloro-1-dodecene	-189530	650.27
62183-82-8	2,2,4,7-tetramethyloctane	-312500	571.68
66577-53-5	trans-1-iodo-1-heptadecene	-200120	867.23
16967-04-7	butyl hexyl sulfide	-208530	611.82
7719-87-1	N-tetrahexacontane	-1364300	2648.9
111-36-4	butyl isocyanate	-127000	382.61
625-86-5	2,5-dimethylfuran	-97900	338.09
62199-76-2	2,2-dimethyl-3-tert-butylhexane	-256500	527.4
66271-73-6	cis-1-iodo-1-hexadecene	-179480	828.28
1071-31-4	2,2,7,7-tetramethyloctane	-325600	547.19
20278-87-9	3,3,4-trimethylheptane	-256560	515.1
90-02-8	salicylaldehyde	-214950	388.44
593-49-7	heptacosane	-600610	1207.7
295-65-8	cyclohexadecane	-321700	
7439-89-6	iron	415470	180.47
7789-33-5	iodine bromide	40880	258.95
75-45-6	chlorodifluoromethane	-482800	281.1
544-10-5	1-chlorohexane	-182910	423.14
23433-04-7	1,3-heptanediol	-503500	500.97
66271-54-3	ethyl tetradecyl sulfide	-331290	844.87
107-92-6	butyric acid	-473600	353.05
1120-06-5	2-decanol	-407240	586.89
61868-62-0	3,4,4,5-tetramethylheptane	-268500	517.77
7783-55-3	phosphorus (III) fluoride	-958440	273.08
66563-92-6	trans-1-chloro-1-heptadecene	-292730	845.03
88-09-5	2-ethyl butyric acid	-517000	423.3
2612-28-4	2-propyl-1,3-propanediol	-472100	498.11
13494-92-3	iodine dioxide	159320	281.47
24608-84-2	5-methyl-cis-2-heptene	-95100	456.24
7212-53-5	5-methyl-1-heptanol	-365960	508.99
62126-88-9	1,1-difluorononatriacontane	-1261600	1676
62016-74-4	pentacosylcyclopentane	-602050	1274.2
19486-08-9	2,2-dimethylhexadecane	-423600	818.27
77-73-6	dicyclopentadiene	196100	241.45
103-50-4	dibenzyl ether	19300	525.17
112-31-2	decanal	-331700	578.97
12036-22-5	tungsten (IV) oxide	76570	285.44
23361-69-5	2,2-dimethylpropyl butanoate	-562700	531.71
7783-82-6	tungsten fluoride	-1721720	341.08
40813-84-1	butyl heptyl sulfide	-229160	650.84
91-63-4	2-methylquinoline	177000	348.84
764-93-2	1-decyne	41000	526.16
66675-46-5	1,1-diiodoheptane	-39350	530.38
62184-97-8	3,4-dimethyl-3,4-diethylhexane	-267400	554.91
66291-94-9	1,1-diiodohexacosane	-431510	1270.5
1186-53-4	2,2,3,4-tetramethylpentane	-235000	451.53
690-08-4	4,4-dimethyl-trans-2-pentene	-90200	346.79
4434-66-6	1-bromononadecane	-409160	947.14
61868-05-1	2,4-dimethyltridecane	-363490	721.24
62184-92-3	2,4-dimethyl-3,3-diethylhexane	-255800	560.94
4457-00-5	hexylcyclopentane	-209700	531.98
20654-44-8	2,3-dimethylbutanenitrile	-19800	386.47
507-36-8	2-bromo-2-methylbutane	-128950	362.94
20184-89-8	3-nonyne	43210	478.32
17839-26-8	ethylpentylamine	-134340	469.34
5954-71-2	2,cis-3-dimethylthiacyclopropane	11590	
62183-58-8	3,3-dimethyl-5-ethyloctane	-298100	591.13
66291-76-7	dimethylhexacosylamine	-553720	1262.8
6946-24-3	1-bromotetracosane	-512360	1141.9
100-66-3	anisole	-68000	361.5
100-41-4	ethylbenzene	29900	361.24
3683-19-0	4-methyl-cis-2-hexene	-75700	413.13
460-73-1	1,1,1,3,3-pentafluoropropane	-1099800	382.94
6742-54-7	undecylbenzene	-158300	713.95
7726-95-6	bromine	30910	245.4
156-60-5	trans-1,2-dichloroethylene	-400	290.11
7782-65-2	germane	90800	216.65
61847-84-5	1-tetracosyne	-246790	1060.4
61868-42-6	2,2,3,5-tetramethylheptane	-286900	532.52
767-59-9	1-methylindene	122000	355.27
27831-13-6	4-ethenyl-1,2-dimethylbenzene	89290	422.16
19549-74-7	3,5-dimethyl-3-heptanol	-395350	509.07
1726-13-2	1,1-diphenylnonane	-27000	
10476-85-4	strontium chloride	-473210	312.65
100-63-0	phenylhydrazine	203500	351.55
1613-51-0	thiacyclohexane	-63300	323.08
1530-05-8	1,1-diphenylheptane	21000	
78-80-8	2-methyl-1-butene-3-yne	260000	279.87
31950-55-7	4-bromo-3-methyl-1-butene	-50	387.68
54105-66-7	undecylcyclohexane	-358400	736.04
628-81-9	ethyl butyl ether	-292400	429.94
62126-97-0	1,1,1-trifluoroundecane	-867450	640.69
768-49-0	(2-methyl-1-propenyl)benzene	94230	428.37
22663-64-5	3-methyl-1-nonanol	-407240	586.89
420-26-8	2-fluoropropane	-293500	292.92
627-98-5	5-methyl-1-hexanol	-342000	467.08
3155-43-9	1,18-octadecanediol	-719310	958.93
19549-71-4	2,3-dimethyl-3-heptanol	-395350	509.07
61847-88-9	1-octacosyne	-329350	1216.2
2027-17-0	2-isopropylnaphthalene	71470	464.38
218-01-9	chrysene	269800	450.04
77-92-9	citric acid	-1390000	557.43
95-63-6	1,2,4-trimethylbenzene	-13800	395.36
998-76-5	1,2-diiodopentane	1930	452.47
62016-48-2	methyl 2-methylbutyl ether	-284200	425.92
61868-64-2	2,3-dimethyl-3-isopropylhexane	-262700	527.16
156-59-2	cis-1,2-dichloroethylene	-2800	289.78
7116-86-1	5,5-dimethyl-1-hexene	-100800	393.86
66827-07-4	trans-1-fluoro-1-tetradecene	-411180	726.45
17312-50-4	2,5-dimethyldecane	-302200	608.24
17302-17-9	3,3-diethylheptane	-271900	542.59
40575-41-5	2-methyl-4-octanol	-391880	538.41
765-09-3	1-bromotridecane	-285320	713.43
66271-69-0	cis-1-chloro-1-hexadecene	-272090	806.08
871-28-3	1-pentene-4-yne	269000	306.7
62184-96-7	3,3-dimethyl-4,4-diethylhexane	-255900	540.15
79-02-7	dichloroacetaldehyde	-201000	330.3
95-93-2	1,2,4,5-tetramethylbenzene	-44560	419.22
62017-33-8	1,1-dichlorohentriacontane	-719930	1420.8
57253-30-2	1-bromo-2-methyl-trans-2-butene	-12770	391.07
18675-20-2	2,4-dimethyl-2-octanol	-415990	548.02
10097-28-6	silicon monoxide	-99600	211.27
79-24-3	nitroethane	-102000	316.82
12035-90-4	tantalum oxide	192460	241.15
62108-50-3	1-bromotetratriacontane	-718760	1531.4
87-85-4	hexamethylbenzene	-105690	453.79
39516-24-0	1,3-dodecanediol	-600750	715.69
62016-37-9	2,4,6-trimethyloctane	-284800	559.69
2216-33-3	3-methyloctane	-233700	504.86
533-98-2	1,2-dibromobutane	-99200	409.24
66256-39-1	3,4,4,5-tetramethyl-3-hexanol	-424740	509.14
62168-35-8	1,1-dibromooctadecane	-367470	949.71
421-04-5	1-chloro-1,1,2-trifluoroethane	-697430	323.54
1072-05-5	2,6-dimethylheptane	-242800	482.06
66291-47-2	cis-1-chloro-1-decene	-148250	572.37
3982-91-0	phosphorus thiochloride	-380740	337.36
17302-31-7	3,6-dimethylnonane	-279200	574.11
75-43-4	dichlorofluoromethane	-284900	293.26
62184-78-5	1-tridecylcyclopentene	-248200	
7789-48-2	magnesium bromide	-302920	301.04
62108-92-3	1-fluorooctatriacontane	-1023800	1667.9
21571-91-5	3,3-dichloropentane	-186760	378.73
19549-78-1	3,3-dimethyl-4-heptanol	-395350	509.07
2402-06-4	1,trans-2-dimethylcyclopropane	-3200	316.85
23010-05-I	1,1-dichloro-2-methylbutane	-188570	398.56
29559-55-5	1,3-dichloro-2,2-dimethylpropane	-186760	378.73
60671-32-1	3-methyl-2-nonanol	-412520	577.37
2366-36-1	1,1,1-trichloro-2-fluoroethane	-302000	350.1
629-08-3	heptanenitrile	-30400	445.74
3452-09-3	1-nonyne	61700	487
59973-07-8	methyl nonyl sulfide	-204300	607.93
1119-65-9	2-heptyne	84800	411.72
112-99-2	dioctadecylamine	-732900	1599
7704-34-9	sulfur	276980	167.82
66793-89-3	2,2,4-trimethyl-3-hexanol	-400630	499.54
7307-58-6	diethyltetradecylamine	-347320	873.23
62016-76-6	1-chlorononadecane	-454890	917.24
1634-09-9	1-butylnaphthalene	53050	498.5
760-20-3	3-methyl-1-pentene	-49000	377.13
2625-29-8	1-nitro-2,2-dimethylbutane	-186680	431.14
1731-81-3	undecyl acetate	-630000	718.51
4074-43-5	3-butylphenol	-190510	465.58
13517-10-7	boron triiodide	71130	348.78
1573-28-0	3,6-dimethyl-3-heptanol	-395350	509.07
2696-92-6	nitrosyl chloride	51710	261.68
62103-66-6	propyl nonyl sulfide	-248990	689.9
66793-85-9	3-propyl-1-hexanol	-386600	547.94
111-78-4	1,5-cyclooctadiene	101100	350.71
42132-00-3	2-chloro-trans-2-pentene	-54840	373.45
3377-86-4	2-bromohexane	-146120	431.24
513-36-0	1-chloro-2-methylpropane	-172000	251.56
123-62-6	propionic anhydride	-626500	470.66
75-00-3	ethyl chloride	-112300	275.65
18435-54-6	1-hentriacontene	-557740	1358.9
19550-81-3	3,4-dimethyl-cis-2-hexene	-109700	435.95
2207-03-6	trans-1,3-dimethylcyclohexane	-176500	375.61
15869-96-2	4,5-dimethyloctane	-253380	525.9
4292-92-6	pentylcyclohexane	-234400	499.35
2876-35-9	2-tert-butylnaphthalene	51300	509.67
18787-63-8	2-hexadecanone	-486900	812.21
2131-18-2	pentadecylbenzene	-241200	870.23
17348-59-3	isopropyl-tert-butyl-ether	-358150	419.05
109-66-0	pentane	-146800	349.25
33879-72-0	3-methyl-1,3-pentanediol	-495200	402.92
542-10-9	ethylidene diacetate	-812000	494.42
79-20-9	methyl acetate	-411900	324.29
66324-57-0	trans-1-iodo-1-tridecene	-117560	711.42
59967-14-5	4-iodo-1-pentene	50490	392.25
2216-30-0	2,5-dimethylheptane	-240700	494.13
556-56-9	3-iodo-1-propene	91500	322.84
598-25-4	3-methyl-1,2-butadiene	129100	321.67
629-92-5	nonadecane	-435790	900.86
61868-90-4	2,2,4-trimethyl-3-isopropylpentane	-232400	499.65
1120-21-4	undecane	-270430	585.72
3522-94-9	2,2,5-trimethylhexane	-253300	461.93
49623-50-9	1,3-dibromo-2-methylbutane	-104430	433.81
24298-09-7	2-iodo-cis-2-butene	58410	356.69
62168-31-4	1,1-dibromotetradecane	-284910	793.9
1647-23-0	1-bromo-3,3-dimethylbutane	-151400	421.71
61868-68-6	2-methyl-3,4-diethylhexane	-263600	550.64
10544-73-7	nitrogen trioxide	82840	308.55
62183-71-5	4,4-dimethyl-6-ethyloctane	-298100	584.76
123-75-1	pyrrolidine	-3500	310.38
40225-75-0	6-methyl-3-octanol	-391880	538.41
124-04-9	adipic acid	-865040	499.22
13678-54-1	2-methyl-4-ethyl thiophene	30890	383.69
2679-87-0	ethyl sec-butyl ether	-304600	420.89
2721-38-2	1,1-diethylcyclopentane	-153370	525.68
10025-78-2	silane, trichloro	-496220	313.71
60302-24-1	2,2,3,3,5,5-hexamethylhexane	-296000	514.66
66375-04-0	ethylheneicosylamine	-464580	1092.6
62168-17-6	1,1-dibromooctatriacontane	-780270	1728.8
62016-56-2	tricosylcyclopentane	-560770	1196.2
13460-50-9	metaboric acid (b form)	-561900	239.83
49542-74-7	2,4,8-trimethylnonane	-308500	594.49
62127-16-6	1,1-difluoroheptacosane	-1015600	1202.9
13286-92-5	3,3-dimethyl-2-thiapentane	-137400	401.01
64-17-5	ethyl alcohol	-235000	280.37
19550-88-0	3,4-dimethyl-trans-3-hexene	-107200	464.83
62126-75-4	3,4-dimethyl-5-ethylphenol	-213450	453.24
24646-85-3	vanadium nitride	523000	232.26
7787-49-7	beryllium fluoride	-796010	227.62
62185-22-2	4,4,5,5-tetramethyloctane	-293200	541.16
17057-91-9	1,3,8-trimethylnaphthalene	57000	442.68
34887-14-4	2,2-dichloropentane	-186760	378.73
1679-08-9	2,2-dimethyl-1-propanethiol	-128700	385.67
66688-6R-4	1,2-difluoro-2-methylbutane	-547500	375.28
62127-32-6	2-fluoro-4-methylpentane	-373840	402.36
629-04-9	1-bromoheptane	-168000	486.96
569-41-5	1,8-dimethylnaphthalene	82000	406.88
3404-80-6	4-methyl-2-ethyl-1-pentene	-103400	431.52
15869-92-8	3,4-dimethyloctane	-253380	531.64
85-44-9	phthalic anhydride	-393130	399.91
674-76-0	4-methyl-trans-2-pentene	-61300	368.08
62126-78-7	1-fluoroheneicosane	-672880	1005.7
75-04-7	ethylamine	-47500	283.6
62127-12-2	1,1-difluorotricosane	-933600	1045.2
501-65-5	diphenylacetylene	430120	466.58
62108-44-5	1-bromotricosane	-491720	1103
14609-79-1	2,2,4,4-tetramethyl-3-pentanol	-404100	470.19
26825-83-2	1-iodoheptadecane	-317340	873.81
616-19-3	1,3-dichloro-2-methylpropane	-162650	369.13
4860-03-1	1-chlorohexadecane	-394890	793.95
57-11-4	octadecanoic acid	-764000	914.04
42841-80-5	propyl pentyl sulfide	-166570	533.62
6443-92-1	cis-2-heptene	-69500	422.66
110-83-8	cyclohexene	-5000	310.51
62016-14-2	2,5,6-trimethyloctane	-281300	559.69
123-42-2	diacetone alcohol	-545800	437.39
127-19-5	N,N'-dimethylacetamide	-225000	351.58
62198-68-9	2,4,6-trimethyl-3-ethylheptane	-293100	584.09
7784-23-8	aluminum iodide	-193300	373.64
62199-86-4	2,4,4-trimethyl-3-isopropylhexane	-246500	542.83
39497-66-0	2-isopropyl-1,4-butanediol	-492800	545.04
625-27-4	2-methyl-2-pentene	-66300	379.14
89-72-5	2-sec-butylphenol	-195790	456.05
62199-63-7	2,2,4,5,5-pentamethylheptane	-307400	547.53
23433-05-8	1,3-octanediol	-518190	559.88
373-14-8	1-fluorohexane	-345700	423.79
2809-67-8	2-octyne	63850	439.37
7766-48-5	5-iodo-1-pentene	55770	401.78
100-44-7	benzyl chloride	18700	361.91
18479-57-7	2,6-dimethyt-2-octanol	-415990	548.02
76-15-3	chloropentafluoroethane	-1123000	358.32
13154-12-6	cis-1-bromo-1-hexene	-23620	434.18
28947-77-5	trihexadecylamine	-966520	2041.8
66213-93-2	nonacosylamine	-608100	1337.2
765-13-9	1-pentadecyne	-62400	722.26
35399-81-6	2-amino-3-methylpentane	-145500	417.04
10288-13-8	1,2-dibromo-3-methylbutane	-104430	433.81
60212-30-8	3-undecyne	1930	556.22
75-10-5	difluoromethane	-452300	246.64
12035-98-2	vanadium (II) oxide	127610	230.87
62016-52-8	heptadecylcyclopentane	-436930	962.53
625-23-0	2-methyl-2-hexanol	-348790	440.69
109-94-4	ethyl formate	-388300	328.65
4089-71-8	3-methyl-1,6-hexanediol	-494900	529.81
31849-76-0	trans-1-bromo-1-pentene	-2980	395.23
623-34-7	1,4-dichloro-2-methylbutane	-183290	408.08
41004-19-7	1-iodo-3-methyl-2-butene	37770	395.64
2876-51-9	1-octylnaphthalene	-36000	631.8
62199-00-2	3-methyl-5,5-diethylheptane	-290100	576.37
3238-38-8	2,3,4,6-tetramethylphenol	-224920	447.07
558-17-8	2-iodo-2-methylpropane	-72000	345.43
19550-03-9	2,3-dimethyl-2-hexanol	-374710	470.11
18433-84-6	pentaborane	103300	
506-12-7	heptadecanoic acid	-744000	872.94
55-63-0	nitroglycerine	-270900	
62184-95-6	2,5-dimethyl-3,4-diethylhexane	-278700	579.73
62184-74-1	1-nonylcyclopentene	-165100	
20309-77-7	1,1,cis-3,cis-4-tetramethylcyclopentane	-194050	440.96
998-35-6	5-propylnonane	-293000	612.93
66271-83-8	butyl undecyl sulfide	-311580	807.26
629-65-2	diheptyl sulfide	-290960	762.33
2207-01-4	cis-1,2-dimethylcyclohexane	-172100	374.27
557-91-5	1,1-dibromoethane	-40800	327.45
7783-42-8	thionyl fluoride	-543920	279.13
2077-31-8	cis-1-methyl-3-(1-propenyl)benzene	92550	426.35
61847-81-2	1-heneicosyne	-184870	943.5
66359-75-9	diethylheneicosylamine	-491800	1145.9
62184-33-2	2-methyl-4-propyloctane	-299300	604.88
79-22-1	methyl chloroformate	-424000	312.89
111-87-5	1-octanol	-357000	518.65
62017-36-1	1,1-dichlorotetratriacontane	-781850	1537.7
111-88-6	octyl mercaptan	-170100	533.32
2216-32-2	4-ethylheptane	-231800	495.47
66214-02-6	dimethyloctacosylamine	-595000	1340.7
53731-22-9	1,1-difluoro-3-methylbutane	-549310	395.1
932-39-8	1,cis-2-diethylcyclopentane	-188950	413.79
7154-80-5	3,3,5-trimethylheptane	-258570	515.07
688-74-4	tributyl borate	-1147000	
110-02-1	thiophene	114900	278.81
6137-03-7	3-ethyl-2-pentanone	-305670	445.84
3228-03-3	3-methyl-5-isopropylphenol	-207260	449.88
110-86-1	pyridine	140400	282.5
17312-55-9	3,8-dimethyldecane	-300100	609.24
61868-99-3	3-methyl-4-isopropylheptane	-266100	558.69
62199-47-7	3,4,4,5-tetramethyloctane	-289000	561.28
109-77-3	malononitrile	265500	287.52
62154-91-0	1-iodotetracontane	-792060	1769.7
75-74-1	lead, tetramethyl	135900	
92-06-8	m-terphenyl	277000	528.39
53392-86-2	1,1,1-trifluorooctane	-805530	523.83
2690-08-6	dioctyl sulfide	-332170	840.54
1459-10-5	tetradecylbenzene	-220400	831.41