CAS	name	Hf(g)	S0(g)
629-30-1	1,7-heptanediol	-490200	537.39
62154-85-2	1-iodotetratriacontane	-668220	1405.3
21101-88-2	3-methylpentanenitrile	-14300	398.88
61868-60-8	3,3,4,5-tetramethylheptane	-268700	537.89
1809-05-8	3-iodopentane	-74940	396.86
374-07-2	1,1-dichloro-1,2,2,2-tetrafluoroethane	-926800	367.13
634-66-2	1,2,3,4-tetrachlorobenzene	-9600	397.3
12317-46-3	palladium (II) chloride, (bicyclo[2.2.1]hepta-2,5-diene)	80900	916.9
31294-95-8	2-iodo-2-methylpentane	-99050	406.46
109-67-1	1-pentene	-21300	347.03
598-75-4	3-methyl-2-butanol	-314550	384.77
66793-73-5	3,4,4-trimethyl-1-hexanol	-395350	509.07
105-58-8	diethyl carbonate	-639100	404.72
62168-26-7	1,1-dibromooctane	-161070	560.19
7681-11-0	potassium iodide	-125520	258.29
1314-85-8	phosphorus sesquisulfide	-151040	319.31
2639-63-6	hexyl butanoate	-566600	601.05
541-28-6	1-iodo-3-methylbutane	-74940	396.86
3814-34-4	1-bromo-2-ethylbutane	-154870	392.36
62154-80-7	1-iodooctacosane	-544380	1302.3
61847-93-6	1-tritriacontyne	-432550	1410.9
62016-21-1	3-methyl-5-ethyloctane	-276500	572.1
1314-68-7	rhenium heptoxide	-1100000	436.31
62016-40-4	3,3,4-trimethyloctane	-276400	544.93
17312-48-0	3,5-dimethyldecane	-299200	612.93
6163-64-0	3,3-dimethyl-2-thiabutane	-113410	373.29
610-39-9	3,4-dinitrotoluene	-14000	
14722-40-8	1,15-pentadecanediol	-657390	842.07
2050-00-2	1,1-dimethylpropyl butanoate	-581000	526.34
100-10-7	p-dimethylaminobenzaldehyde	-27900	435.83
66225-18-1	6-methyl-cis-2-heptene	-96500	451.55
141-93-5	m-diethylbenzene	-21000	440.21
766-07-4	cyclohexyl peroxide	-220000	380.71
136-60-7	butyl benzoate	-367000	539.08
2765-18-6	1-propylnaphthalene	74680	459.61
2245-38-7	1,6,7-trimethylnaphthalene	57000	442.68
19781-13-6	4,7-dimethyl-4-octanol	-415990	548.02
66577-61-5	propyl tetradecyl sulfide	-352040	885.33
98-01-1	furfural	-151040	333.65
28122-28-3	2',4'-dimethyldiphenylmethane	101000	527.88
61350-03-6	1,1-difluorooctane	-624600	520.71
61828-25-9	heptacosylbenzene	-487920	1335
26356-06-9	2-bromo-3,3-dimethylbutane	-154870	392.36
75-54-7	methyl dichlorosilane	-402000	328.88
629-59-4	tetradecane	-332440	704.25
74-82-8	methane	-74500	186.6
41593-56-0	phosphorus trifluoroborane	-854000	
62016-22-2	3-methyl-6-ethyloctane	-277300	568.75
20619-16-3	germanium (II) oxide	-46200	224.22
542-92-7	cyclopentadiene	134300	274.17
2162-91-6	diethylpentylamine	-161560	522.66
4127-45-1	1,1,2-trimethylcyclopropane	-63700	229.22
2456-28-2	didecyl ether	-580700	975.41
2207-04-7	trans-1,4-dimethylcyclohexane	-184500	366.22
66793-90-6	2,3,4-trimethyl-3-hexanol	-400630	499.54
590-36-3	2-methyl-2-pentanol	-349000	331.8
5162-44-7	4-bromo-1-butene	25870	358.26
2876-46-2	2-hexylnaphthalene	14400	579.59
62154-89-6	1-iodooctatriacontane	-750780	1691.8
2216-21-9	1-nitrononane	-228900	742.49
54549-80-3	1,1-dimethyl-2-ethylcyclopentane	-173710	483.32
61847-92-5	1-dotriacontyne	-411910	1372
629-72-1	1-bromopentadecane	-326600	791.33
7784-34-1	arsenic trichloride	-261500	327.36
5194-51-4	trans-2,trans-4-hexadiene	43300	356.8
598-71-0	dl-2,3-dibromobutane	-83790	394.85
562-49-2	3,3-dimethylpentane	-204400	383.29
1687-64-5	2-methyl-6-ethylphenol	-181340	420.46
109-87-5	methylal	-348200	336.27
62108-61-6	1,1,1-trichloroheptadecane	-451700	915.44
111-42-2	diethanolamine	-396880	429.54
61828-01-1	1-methyl-trans-2-isopropylcyclopentane	-194230	404.27
6938-66-5	1-bromodocosane	-471080	1064
822-24-2	eicosyl acetate	-816200	1072.9
452-86-8	1,2-dihydroxy-4-methylbenzene	-305900	375.2
61828-04-4	tricosylbenzene	-405360	1179.2
10031-22-8	lead bromide	-104390	339.4
18970-44-0	1-ethyl-2-isopropylbenzene	-42400	462.26
16747-30-1	2,4,4-trimethylhexane	-240000	468.64
13175-27-4	1,6-heptanediol	-505500	494.26
16435-49-7	2-methyl-1-dodecene	-196010	653.62
66702-91-8	4-fluoro-1-pentene	-222490	368.33
62127-41-7	1,1-difluorohexane	-583300	441.4
62127-45-I	1,1-difluorododecane	-707100	679.34
62198-78-1	3,4,5-trimethyl-3-ethylheptane	-283100	569.67
66719-34-4	4,7-dimethyl-1-octanol	-412520	577.37
1317-37-9	iron (II) sulfide	370770	252.32
659-70-1	isopentyl isovalerate	-583000	590.21
10043-52-4	calcium chloride	-471540	290.27
38842-05-6	1,2,3,5-tetraethylbenzene	-122840	587.44
62017-21-4	1,1-dichlorononadecane	-480800	979.74
62127-47-3	2,3,3-tribromobutane	-60930	416.55
74-86-2	acetylene	228200	200.86
75-26-3	2-bromopropane	-97000	316.26
6422-18-0	1-chlorotetracosane	-554890	1122.7
19550-30-2	2,3-dimethyl-1-butanol	-326600	432.83
7783-26-8	trisilane	120900	
565-69-5	ethyl isopropyl ketone	-286100	407.6
7766-51-0	4-iodo-1-butene	76410	362.83
17312-42-4	4,4-diethyloctane	-292400	588.78
10143-23-4	2,3-dimethyl-1-pentanol	-350600	460.51
7318-67-4	1,cis-4-hexadiene	75480	378.53
7664-39-3	hydrogen fluoride	-272550	173.78
29843-62-7	2-methyl-5-nonanol	-412520	577.37
557-98-2	2-chloro-1-propene	-21000	296.48
62198-56-5	2,3,4-trimethyl-5-ethylheptane	-291600	571.68
62184-53-6	2,2,7-trimethylnonane	-312900	583.75
930-18-7	1,cis-2-dimethylcyclopropane	700	309.8
1721-89-7	2,3-dimethylquinoline	167080	369.52
62127-55-3	1-iodotetracosane	-461820	1146.5
4914-91-4	3,4-dimethyl-cis-2-pentene	-85600	408.6
62199-12-6	2,2,5-trimethyl-5-ethylheptane	-315000	556.92
7440-41-7	beryllium	324000	136.34
5454-19-3	decyl propanoate	-627300	718.51
16900-07-5	butyl octyl sulfide	-249740	689.9
821-95-4	1-undecene	-145300	583.16
15869-85-9	5-methylnonane	-253970	536
7783-75-7	iridium (VI) fluoride	-544000	362.14
61868-58-4	2,4,5,5-tetramethylheptane	-282700	530.85
106-49-0	p-toluidine	45000	355.1
106-44-5	p-cresol	-125300	350.87
62199-03-5	4-methyl-3,5-diethylheptane	-287900	574.03
2084-19-7	2-pentanethiol	-117200	406.13
513-38-2	1-iodo-2-methylpropane	-54300	357.9
589-81-1	3-methylheptane	-212500	465.71
32970-37-9	3,4-dimethyltetrahydrofuran	-259030	245.63
62168-41-6	2-bromo-3-methylpentane	-151400	421.71
66225-20-5	6-methyl-trans-3-heptene	-103200	429.08
7647-19-0	phosphorus (V) fluoride	-1594410	300.83
62185-27-7	3-ethyl-4-isopropylheptane	-284100	588.45
629-82-3	dioctyl ether	-498100	817.79
21129-09-9	1,2-tetradecanediol	-642030	793.59
1124-20-5	1-methyl-3-(1-methylethenyl)benzene	81340	379.23
62017-35-0	1,1-dichlorotritriacontane	-761210	1498.7
62184-48-9	4-methyl-7-ethylnonane	-297800	606.22
34403-05-9	2-methyl-1,2-diphenylethane	112300	533.49
64531-23-3	cis-1-chloro-1-octene	-106970	494.46
6117-99-3	2,4-dimethyldodecane	-342850	682.28
52315-44-3	1-octylcyclopentene	-144300	
20291-60-5	methyl hexyl sulfide	-142400	490.47
108-87-2	methylcyclohexane	-154700	343.5
66455-49-0	nonadecyl formate	-738300	998.62
2077-29-4	cis-1-methyl-4-(1-propenyl)benzene	92550	426.35
19398-53-9	2,4-dibromopentane	-104430	433.81
1120-24-7	dimethyldecylamine	-223480	639.51
7440-48-4	cobalt	426680	179.45
62183-84-0	2,2,5,6-tetramethyloctane	-312500	572.68
19902-99-9	1,trans-3-dimethyl-cis-2-ethylcyclopentane	-209290	371.43
7642-10-6	cis-3-heptene	-69200	421.65
14919-01-8	trans-3-octene	-94500	465.17
66455-41-2	trans-1-chloro-1-eicosene	-354650	961.89
107-00-6	ethylacetylene	165200	290.23
13706-19-9	molybdenum (VI) chloride	-439320	419.75
576-26-1	2,6-xylenol	-161700	390.02
820-05-3	4,6-dimethyl-1-heptanol	-391880	538.41
124-09-4	hexamethylenediamine	-98830	475.45
105-54-4	ethyl butanoate	-485500	442.42
544-76-3	hexadecane	-374170	782.9
64-67-5	diethyl sulfate	-754900	421.42
91-23-6	o-nitroanisole	-84500	401.68
7348-78-9	1-bromo-cis-2-pentene	-2980	395.23
2765-11-9	pentadecanal	-435600	775.41
6570-87-2	3,4-dimethyl-1-pentanol	-350600	460.51
55073-86-4	2,2,5,5-tetramethyl-3-hexanol	-424740	509.14
59222-86-5	2,2-dimethyltetradecane	-382320	740.37
66576-98-5	ethylhexatriacontylamine	-774180	1676.9
67-66-3	chloroform	-102900	295.69
5857-69-2	2,2,3,4,4-pentamethyl-3-pentanol	-428210	479.8
54653-28-0	3-bromo-trans-2-pentene	-12770	391.07
62199-82-0	2,2,5-trimethyl-4-isopropylhexane	-300000	552.9
18371-24-9	1,3-diiodobutane	22570	413.52
7286-40-0	3-nitrohexane	-183210	460.48
62184-52-5	2,2,6-trimethylnonane	-312700	582.41
679-86-7	1,1,2,2,3-pentafluoropropane	-1099800	382.94
62198-90-7	2-methyl-3,3-diethylheptane	-280400	582.75
62126-95-8	1,3-difluoropentane	-544030	404.63
19550-05-1	3,4-dimethyl-2-hexanol	-376520	489.94
75-25-2	bromoform	16700	330.59
50422-80-5	5-methyl-cis-3-heptene	-96500	451.55
463-58-1	carbonyl sulfide	-138410	231.58
7443-70-1	cis-2-methylcyclohexanol	-327000	391.84
6006-95-7	pentadecylcyclohexane	-441100	894
10026-12-7	niobium (V) chloride	-703330	404.05
17373-29-4	dimethyltridecylamine	-285400	756.37
4485-77-2	dinonyl disulfide	-367000	963.28
62199-06-8	2,2,3-trimethyl-5-ethylheptane	-305500	564.97
101-54-2	p-aminodiphenylamine	206000	450.91
16883-48-0	1,trans-2,cis-4-trimethylcyclopentane	-188650	332.48
79-10-7	acrylic acid	-323500	307.65
7783-46-2	lead fluoride	-435140	292.71
3017-68-3	2-bromo-cis-2-butene	7870	352.12
122-39-4	diphenylamine	202000	403.8
1323-65-5	dinonylphenol	-487000	1122.5
5026-76-6	6-methyl-1-heptene	-90300	446.79
1119-85-3	1,4-dicyano-2-butene	261000	393.37
105-38-4	vinyl propionate	-347360	385.62
62183-62-4	3,4-dimethyl-6-ethyloctane	-296900	596.5
51115-64-1	2-methylbutyl butanoate	-552200	556.53
62017-42-9	1,1-dichlorotetracontane	-905690	1771.4
20352-67-4	ethylhexylamine	-154980	508.29
26533-35-7	3-methyl-4-octanol	-391880	538.41
66225-42-1	methylpropylisopropylamine	-125560	435.23
1536-21-6	1-fluorotridecane	-490100	701.56
543-49-7	2-heptanol	-355000	477.14
61847-86-7	1-hexacosyne	-288070	1138.3
62127-08-6	1,1-difluorononadecane	-851500	957.11
7372-86-3	2-methyl-6-ethylnaphthalene	61300	456.43
108-05-4	vinyl acetate	-315700	328.02
629-62-9	pentadecane	-353110	743.57
66719-36-6	3-ethyl-1-octanol	-407240	586.89
61828-06-6	pentacosylbenzene	-446640	1257.1
1344-57-6	uranium (IV) oxide	-465700	274.81
1560-86-7	2-methylnonadecane	-461410	925.52
7789-30-2	bromine pentafluoride	-428720	323.69
3698-94-0	ethyl octyl sulfide	-207650	610.42
13709-94-9	potassium metaborate	-674040	297.49
13446-57-6	molybdenum (III) bromide	-8370	375.09
107-31-3	methyl formate	-349700	301.57
105-68-0	isopentyl propanoate	-529200	514.69
61827-91-6	octacosylcyclopentane	-663970	1391
62108-91-2	1-fluoroheptatriacontane	-814890	2260.3
38514-05-5	6-methyl-1-octanol	-386600	547.94
62127-50-8	1,1,1,3-tetrabromopropane	-8680	438.17
463-11-6	1-fluorooctane	-386900	503.44
2436-92-2	3,4-dimethylquinoline	167080	369.52
108-01-0	dimethylethanolamine	-202000	384.66
16644-66-9	1,1,1-tribromopentane	-76290	465.03
62184-44-5	3-methyl-7-ethylnonane	-298000	607.9
616-45-5	2-pyrrolidone	-197150	301.66