CAS	Name	T_flash
110-59-8	VALERONITRILE	307.15
109-77-3	MALONONITRILE	385.15
628-73-9	HEXANENITRILE	316.15
78-82-0	ISOBUTYRONITRILE	267.141245924398
100-47-0	BENZONITRILE	330.69370558102
110-86-1	PYRIDINE	282.878858748312
62-53-3	ANILINE	340.412915981506
584-84-9	2,4-TOLUENE DIISOCYANATE	388.85618040316
111-49-9	HEXAMETHYLENEIMINE	301.15
100-61-8	N-METHYLANILINE	343.222730019796
121-69-7	N,N-DIMETHYLANILINE	333.375168866744
109-06-8	2-METHYLPYRIDINE	299.15
1190-76-7	cis-CROTONITRILE	288.65
107-03-9	n-PROPYL MERCAPTAN	248.389693303484
75-66-1	tert-BUTYL MERCAPTAN	249.017180957406
513-44-0	ISOBUTYL MERCAPTAN	263.514870914902
111-31-9	n-HEXYL MERCAPTAN	305.65
1455-21-6	n-NONYL MERCAPTAN	351.15
111-88-6	n-OCTYL MERCAPTAN	341.15
75-33-2	ISOPROPYL MERCAPTAN	239
1569-69-3	CYCLOHEXYL MERCAPTAN	312.15
100-53-8	BENZYL MERCAPTAN	343.15
624-89-5	METHYL ETHYL SULFIDE	249.31363985002
6163-64-0	METHYL t-BUTYL SULFIDE	270.15
111-47-7	DI-n-PROPYL SULFIDE	304.245059060354
352-93-2	DIETHYL SULFIDE	263.15
75-18-3	DIMETHYL SULFIDE	227.748706300796
110-02-1	THIOPHENE	263.775435409412
95-15-8	BENZOTHIOPHENE	363.659670747966
110-81-6	DIETHYL DISULFIDE	309.249377370032
143-10-2	n-DECYL MERCAPTAN	368.335582834692
110-66-7	n-PENTYL MERCAPTAN	291.15
624-92-0	DIMETHYL DISULFIDE	285.528098359644
629-19-6	DI-n-PROPYL DISULFIDE	339.15
1195-14-8	2-METHYL BENZOTHIOPHENE	365.440288042082
112-55-0	n-DODECYL MERCAPTAN	393
141-59-3	tert-OCTYL MERCAPTAN	304
1639-09-4	n-HEPTYL MERCAPTAN	323.65
592-88-1	DIALLYL SULFIDE	298.65
109-79-5	n-BUTYL MERCAPTAN	271.139004061146
108-98-5	PHENYL MERCAPTAN	328.15
110-01-0	TETRAHYDROTHIOPHENE	291
67-68-5	DIMETHYL SULFOXIDE	359.864404066718
598-03-8	DI-n-PROPYL SULFONE	399.15
598-04-9	DI-n-BUTYL SULFONE	412.665709018182
75-36-5	ACETYL CHLORIDE	242.239841208968
79-11-8	CHLOROACETIC ACID	338.821627761882
79-36-7	DICHLOROACETYL CHLORIDE	290.727629255574
98-88-4	BENZOYL CHLORIDE	345
98-56-6	p-CHLOROBENZOTRIFLUORIDE	314.69126695187
95-51-2	o-CHLOROANILINE	363.71
107-30-2	CHLOROMETHYL METHYL ETHER	247.956741466162
96-23-1	1,3-DICHLORO-2-PROPANOL	358.15
111-44-4	DI(2-CHLOROETHYL)ETHER	348.15
3268-49-3	3-(METHYLMERCAPTO)PROPANAL	332.500809810232
107-96-0	3-MERCAPTOPROPIONIC ACID	366.15
68-12-2	N,N-DIMETHYLFORMAMIDE	316.470535849014
57-13-6	UREA	375.304093548726
105-60-2	epsilon-CAPROLACTAM	412.65
106-89-8	alpha-EPICHLOROHYDRIN	304
75-86-5	ACETONE CYANOHYDRIN	346.94045104477
603-35-0	TRIPHENYLPHOSPHINE	452.969329669234
98-95-3	NITROBENZENE	361
98-01-1	FURFURAL	333.15
136911	ETHYLENE GLYCOL DIACRYLATE	373.15
108-65-6	PROPYLENE GLYCOL MONOMETHYL ETHER ACETATE	316
932952	METHOXYDIHYDROPYRAN	299.15
999-97-3	HEXAMETHYLDISILAZANE	284.15
107-46-0	HEXAMETHYLDISILOXANE	264.150986837544
541-05-9	HEXAMETHYLCYCLOTRISILOXANE	287.097743838054
141-63-9	DODECAMETHYLPENTASILOXANE	352.15
124-70-9	METHYL VINYL DICHLOROSILANE	276.15
14814-09-6	[3-(MERCAPTO)PROPYL]TRIETHOXYSILANE	360.93
4420-74-0	3-(TRIMETHOXYSILYL)-1-PROPANETHIOL	347
556-67-2	OCTAMETHYLCYCLOTETRASILOXANE	321.492988022946
925-78-0	3-NONANONE	339.15
930-68-7	2-CYCLOHEXENE-1-ONE	329.15
1072-16-8	2,7-DIMETHYLOCTANE	310.93
128-37-0	2,6-DI-tert-BUTYL-p-CRESOL	390.15
60-12-8	2-PHENYLETHANOL	373.575470841398
108-82-7	2,6-DIMETHYL-4-HEPTANOL	339.15
93-54-9	1-PHENYL-1-PROPANOL	363.15
1123-85-9	2-PHENYL-1-PROPANOL	381.15
122-97-4	3-PHENYL-1-PROPANOL	382.15
98-85-1	alpha-METHYLBENZYL ALCOHOL	358.15
89-95-2	o-TOLUALCOHOL	377.15
587-03-1	m-TOLUALCOHOL	363.731184897768
599-64-4	p-CUMYLPHENOL	444
625-69-4	2,4-PENTANEDIOL	371.15
616-12-6	3-METHYL-trans-2-PENTENE	246.15
112-47-0	DECAN-1,10-DIOL	425.15
105-08-8	1,4-CYCLOHEXANEDIMETHANOL	434.15
4588-18-5	2-METHYL-1-OCTENE	296.65
15870-10-7	2-METHYL-1-HEPTENE	283.15
75-98-9	NEOPENTANOIC ACID	337.15
149-57-5	2-ETHYL HEXANOIC ACID	383.15
111-14-8	n-HEPTANOIC ACID	377.058658629392
595-37-9	NEOHEXANOIC ACID	351.027261173404
111-16-0	PIMELIC ACID	423.15
616-02-4	METHYL MALEIC ANHYDRIDE	374.15
762-75-4	tert-BUTYL FORMATE	264.15
629-33-4	n-HEXYL FORMATE	320
592-44-9	1,2-HEXADIENE	254.15
4351-54-6	CYCLOHEXYL FORMATE	324.149879087124
540-88-5	tert-BUTYL ACETATE	274.83492241605
547-63-7	METHYL ISOBUTYRATE	267.019566490572
97-62-1	ETHYL ISOBUTYRATE	280.739063580444
104-57-4	BENZYL FORMATE	346.523160207334
96-05-9	ALLYL METHACRYLATE	304.631186091936
622-45-7	CYCLOHEXYL ACETATE	330.485643644458
102-76-1	GLYCERYL TRIACETATE	408.83717013652
84-66-2	DIETHYL PHTHALATE	423.15
131-11-3	DIMETHYL PHTHALATE	417.609647216324
542-10-9	ETHYLIDENE DIACETATE	339.042860427902
105-76-0	DIBUTYL MALEATE	413
106-63-8	ISOBUTYL ACRYLATE	304.26
141-05-9	DIETHYL MALEATE	366.15
624-48-6	DIMETHYL MALEATE	360.608846088856
2315-68-6	n-PROPYL BENZOATE	371.15
628-55-7	DIISOBUTYL ETHER	287.65
628-71-7	1-HEPTYNE	271
505-22-6	1,3-DIOXANE	288.15
462-95-3	ETHYLAL	268.15
1191-99-7	2,3-DIHYDROFURAN	242.296580437018
78-99-9	1,1-DICHLOROPROPANE	280
142-28-9	1,3-DICHLOROPROPANE	305.15
87-61-6	1,2,3-TRICHLOROBENZENE	379.792798222074
108-70-3	1,3,5-TRICHLOROBENZENE	371.569876234168
98-08-8	BENZOTRIFLUORIDE	274.554675423296
78-76-2	2-BROMOBUTANE	275.580838333056
106-38-7	p-BROMOTOLUENE	339.105291578734
638-45-9	n-HEXYL IODIDE	334.15
542-69-8	n-BUTYL IODIDE	304.15
111-26-2	n-HEXYLAMINE	300.15
111-86-4	n-OCTYLAMINE	333
112-20-9	n-NONYLAMINE	343.15
2016-57-1	n-DECYLAMINE	358.15
18328-90-0	N-ETHYL-2-METHYLALLYLAMINE	276.004715920924
102-70-5	TRIALLYLAMINE	293.898684401012
102-82-9	TRI-n-BUTYLAMINE	345.277331777348
111-40-0	DIETHYLENETRIAMINE	360.65878900027
112-57-2	TETRAETHYLENEPENTAMINE	436
102-69-2	TRIPROPYLAMINE	307.191937566598
109-75-1	VINYLACETONITRILE	291.532970098092
111-36-4	n-BUTYL ISOCYANATE	295.65
578-54-1	o-ETHYLANILINE	358.15
75-55-8	PROPYLENEIMINE	247.171729504146
108-45-2	m-PHENYLENEDIAMINE	411.15
1003-03-8	CYCLOPENTYLAMINE	284.65
101-83-7	DICYCLOHEXYLAMINE	372.338982513112
100-60-7	N-METHYLCYCLOHEXYLAMINE	308.15
124-02-7	DIALLYLAMINE	278.713395588802
99-65-0	m-DINITROBENZENE	423.15
528-29-0	o-DINITROBENZENE	423.15
606-20-2	2,6-DINITROTOLUENE	410.93254572288
106-50-3	p-PHENYLENEDIAMINE	400.19817216021
103-71-9	PHENYL ISOCYANATE	324.15
110-85-0	PIPERAZINE	308.652208874788
289-80-5	PYRIDAZINE	358.15
289-95-2	PYRIMIDINE	293.623442600982
288-13-1	PYRAZOLE	355.65
88-74-4	o-NITROANILINE	408.646969514842
99-09-2	m-NITROANILINE	408.381834441898
119-65-3	ISOQUINOLINE	380.15
92-67-1	p-AMINODIPHENYL	426.15
100-54-9	NICOTINONITRILE	357.15
579-66-8	2,6-DIETHYLANILINE	371.768798285118
108-75-8	2,4,6-TRIMETHYLPYRIDINE	327.15
108-48-5	2,6-DIMETHYLPYRIDINE	306
108-99-6	3-METHYLPYRIDINE	309.15
108-89-4	4-METHYLPYRIDINE	312.15
628-29-5	METHYL n-BUTYL SULFIDE	291.15
287-27-4	TRIMETHYLENE SULFIDE	271.15
25360-10-5	tert-NONYL MERCAPTAN	337.350886687716
76-22-2	CAMPHOR	338.7
123-42-2	DIACETONE ALCOHOL	334
98-00-0	FURFURYL ALCOHOL	340.555505197538
127-19-5	N,N-DIMETHYLACETAMIDE	335.517220882188
150-76-5	p-METHOXYPHENOL	398
109-86-4	2-METHOXYETHANOL	296.022903063374
110-80-5	2-ETHOXYETHANOL	306.730238882782
111-76-2	2-BUTOXYETHANOL	334.15
111-77-3	2-(2-METHOXYETHOXY)ETHANOL	355.261988481206
111-90-0	2-(2-ETHOXYETHOXY)ETHANOL	360.017427582956
929-06-6	2-AMINOETHOXYETHANOL	370.050235188192
105-39-5	ETHYLCHLOROACETATE	317.740640302154
107-29-9	ACETALDOXIME	310.775316751292
112-35-6	TRIETHYLENE GLYCOL MONOMETHYL ETHER	383.886170827626
68-11-1	THIOGLYCOLIC ACID	397.114343828974
21282-97-3	2-ACETOACETOXY ETHYL METHACRYLATE	407.05
1589-47-5	2-METHOXY PROPANOL-1	299.324842635596
50-78-2	ACETYLSALICYLIC ACID	438.069550754092
156-43-4	p-PHENETIDINE	389
77-68-9	2-METHYL-, 3-HYDROXY-2,2,4-TRIMETHYLPENTYL PROPANOATE	379.15
95-57-8	o-CHLOROPHENOL	336.15
108-43-0	m-CHLOROPHENOL	370.15
106-48-9	p-CHLOROPHENOL	381.014444840668
3944-36-3	1-ISOPROPOXY-2-PROPANOL	303.18867894878
107-07-3	2-CHLOROETHANOL	309.95732706229
99-63-8	ISOPHTHALOYL CHLORIDE	429.296973576434
107-51-7	OCTAMETHYLTRISILOXANE	299.990874086882
556-69-4	OCTADECAMETHYLOCTASILOXANE	404.875857975384
631-36-7	TETRAETHYL SILANE	300.69297129498
541-01-5	HEXADECAMETHYLHEPTASILOXANE	384.800136041182
927-49-1	DIAMYL KETONE	361.48
485076	1-METHYL-3-HYDROXY-6-ISOPROPYL BENZENE	367.7328245353
13151-06-9	7-METHYL-1-OCTENE	289.65
1759-53-1	CYCLOPROPANE CARBOXYLIC ACID	343.998289102118
97-72-3	ISOBUTYRIC ANHYDRIDE	340.15
6422-86-2	DI(2-ETHYLHEXYL)TEREPHTHALATE	457.836882961284
1120-28-1	METHYL EICOSANOATE	386.15
103-23-1	DI(2-ETHYLHEXYL)ADIPATE	469.15
102-25-0	1,3,5-TRIETHYLBENZENE	354.15
95-68-1	2,4-DIMETHYLANILINE	352.611174934288
109-55-7	3-(N,N-DIMETHYLAMINO) PROPYLAMINE	304.59364759632
611-32-5	8-METHYLQUINOLINE	378.15
1116-76-3	TRI-n-OCTYLAMINE	440.468219555242
96-29-7	2-BUTOXIME	333.39824616
2050-92-2	DIAMYLAMINE	345.65
621-77-2	TRIAMYLAMINE	363.570820310432
7307-55-3	UNDECYLAMINE	365.15
59-67-6	NIACIN	396.979332018642
110-18-9	TETRAMETHYLETHYLENEDIAMINE	290.15
109-76-2	1,3-PROPANEDIAMINE	302.030543636062
103-69-5	N-ETHYLANILINE	344.73736844247
110-06-5	DI-tert-BUTYL DISULFIDE	335.15
107-47-1	DI-tert-BUTYL SULFIDE	303.1444306478
1795-09-1	2-METHYLTHIACYCLOPENTANE	299.08890797067
30453-31-7	ETHYL PROPYL DISULFIDE	323.69356678641
100-68-5	METHYL PHENYL SULFIDE	345.15
544-40-1	DI-n-BUTYL SULFIDE	333.15
4110-50-3	ETHYL PROPYL SULFIDE	285.65
625-80-9	DIISOPROPYL SULFIDE	280.15
1559-35-9	ETHYLENE GLYCOL 2-ETHYLHEXYL ETHER	371.15
34590-94-8	DIPROPYLENE GLYCOL MONOMETHYL ETHER	347.15
57018-52-7	PROPYLENE GLYCOL 1-tert-BUTYL ETHER	312.913036669356
106-47-8	p-CHLOROANILINE	386
143-22-6	TRIETHYLENE GLYCOL n-BUTYL ETHER	416
112-50-5	TRIETHYLENE GLYCOL MONOETHYL ETHER	395.549961071574
21460-36-6	PROPYLENE GLYCOL MONOALLYL ETHER	315.63988968294
556-52-5	2,3-EPOXY-1-PROPANOL	339.892512578798
1569-01-3	PROPYLENE GLYCOL n-PROPYL ETHER	314.659139779114
124-17-4	DIETHYLENE GLYCOL MONOBUTYL ETHER ACETATE	389.15
140-29-4	PHENYLACETONITRILE	374.15
3710-84-7	N,N-DIETHYLHYDROXYLAMINE	297.185740617608
1569-02-4	1-ETHOXY-2-PROPANOL	299.904925655682
585-07-9	tert-BUTYL METHACRYLATE	297.971196445112
78-10-4	TETRAETHOXYSILANE	324.82
919-30-2	gamma-AMINOPROPYLTRIETHOXYSILANE	369.26
556-68-3	HEXADECAMETHYLCYCLOOCTASILOXANE	405
2652-13-3	EICOSAMETHYLNONASILOXANE	419.659142029512
208768	HEXACOSAMETHYLDODECASILOXANE	455.499618997464
75-54-7	METHYL DICHLOROSILANE	241.15
75-79-6	METHYL TRICHLOROSILANE	260.217374452748
75-94-5	VINYLTRICHLOROSILANE	283.15
681-84-5	METHYL SILICATE	294.15
2530-83-8	[3-(2,3-EPOXYPROXY)PROPYL]TRIMETHOXYSILANE	408.15
1066-35-9	DIMETHYLCHLOROSILANE	230.94613369581
75-77-4	TRIMETHYLCHLOROSILANE	245
75-78-5	DIMETHYLDICHLOROSILANE	262.194141201476
541-02-6	DECAMETHYLCYCLOPENTASILOXANE	350.15
540-97-6	DODECAMETHYLCYCLOHEXASILOXANE	366.15
115-21-9	ETHYLTRICHLOROSILANE	288.15
1719-53-5	DICHLORODIETHYLSILANE	297.15
110-99-6	DIGLYCOLIC ACID	488.994819365738
123-76-2	LEVULINIC ACID	404.130655478648
2807-30-9	ETHYLENE GLYCOL MONOPROPYL ETHER	322.15
112-34-5	2-(2-BUTOXYETHOXY)ETHANOL	378.15
121-17-5	4-CHLORO-3-NITROBENZOTRIFLUORIDE	374.15
102-36-3	3,4-DICHLOROPHENYL ISOCYANATE	386
98-46-4	3-NITROBENZOTRIFLUORIDE	357.43617694639
97-00-7	1-CHLORO-2,4-DINITROBENZENE	433.70143055446
100-10-7	p-DIMETHYLAMINOBENZALDEHYDE	420.15
541-41-3	ETHYL CHLOROFORMATE	287.571359035118
79-22-1	METHYL CHLOROFORMATE	258.209019987782
99-54-7	1,2-DICHLORO-4-NITROBENZENE	396.15
88-73-3	o-CHLORONITROBENZENE	394.485379807298
100-64-1	CYCLOHEXANONE OXIME	362.15
317069	VINYLTRIMETHOXYSILANE	296.15
2487-90-3	TRIMETHOXYSILANE	269.15
1112-39-6	DIMETHYLDIMETHOXYSILANE	263.15
98-13-5	PHENYLTRICHLOROSILANE	364.15
149-74-6	PHENYLMETHYLDICHLOROSILANE	353.15
107-52-8	TETRADECAMETHYLHEXASILOXANE	375.15
141-62-8	DECAMETHYLTETRASILOXANE	329.910676755212
127-17-3	PYRUVIC ACID	344.192546808324
78-96-6	1-AMINO-2-PROPANOL	336.365681542616
96-34-4	METHYL CHLOROACETATE	299.399748098234
102-01-2	ACETOACETANILIDE	423.15
103-84-4	ACETANILIDE	393.083366740846
78-97-7	LACTONITRILE	350.15
133-37-9	TARTARIC ACID	483.15
97-64-3	ETHYL LACTATE	331
111-15-9	2-ETHOXYETHYL ACETATE	324.622261116184
112-15-2	DIETHYLENE GLYCOL ETHYL ETHER ACETATE	368.15
105-45-3	METHYL ACETOACETATE	332.489760023202
141-97-9	ETHYL ACETOACETATE	343.15
105-34-0	METHYL CYANOACETATE	380.65
105-56-6	ETHYL CYANOACETATE	378.500540207032
110-67-8	3-METHOXYPROPIONITRILE	326.251058366568
288-14-2	ISOXAZOLE	283.092627074728
2425-74-3	tert-BUTYLFORMAMIDE	355.15
79-16-3	N-METHYLACETAMIDE	378.790865431644
111-48-8	THIODIGLYCOL	433.15
91352	DIMERCAPTOETHYL ETHER	339.779369557478
60-24-2	2-MERCAPTOETHANOL	320.624390670882
110-77-0	ETHYLTHIOETHANOL	349.04491091243
540-63-6	1,2-ETHANEDITHIOL	318.067347646556
100-37-8	DIETHYLETHANOLAMINE	330.15
109-83-1	METHYLETHANOLAMINE	345.15
108-01-0	DIMETHYLETHANOLAMINE	312.15
37143-54-7	3-METHOXYISOPROPYLAMINE	281.15
112-07-2	ETHYLENE GLYCOL MONOBUTYL ETHER ACETATE	344.15
818-61-1	2-HYDROXYETHYL ACRYLATE	366.406314061344
763-69-9	ETHYL-3-ETHOXYPROPIONATE	328.804228290364
111-91-1	DI-(2-CHLOROETHOXY)METHANE	383.15
108-22-5	1-METHYLVINYL ACETATE	273.245710003746
6196-58-3	2-PENTOXYETHANOL	348.15
5878-19-3	METHOXYACETONE	278.67815813553
18912-81-7	2-(2-PENTOXYETHOXY)ETHANOL	383
5131-66-8	PROPYLENE GLYCOL n-BUTYL ETHER	332.15
29911-28-2	DIPROPYLENE GLYCOL n-BUTYL ETHER	373.55
94-28-0	TRIETHYLENE GLYCOL BIS(2-ETHYLHEXANOATE)	480.15
50465	4-(2-AMINOETHYL)MORPHOLINE	354.319544974332
100-74-3	N-ETHYLMORPHOLINE	304.15
2935-90-2	METHYL-3-MERCAPTOPROPIONATE	309.587128012524
539-88-8	ETHYL LEVULINATE	343.599935893964