CAS	Name	T_flash
109-66-0	n-PENTANE	224.15
110-54-3	n-HEXANE	250.15
142-82-5	n-HEPTANE	269
591-76-4	2-METHYLHEXANE	263.15
111-65-9	n-OCTANE	287.15
592-27-8	2-METHYLHEPTANE	279.15
589-81-1	3-METHYLHEPTANE	279.15
589-53-7	4-METHYLHEPTANE	279.15
619-99-8	3-ETHYLHEXANE	278
589-43-5	2,4-DIMETHYLHEXANE	276.15
592-13-2	2,5-DIMETHYLHEXANE	275.15
583-48-2	3,4-DIMETHYLHEXANE	280.65
1067-08-9	3-METHYL-3-ETHYLPENTANE	276
564-02-3	2,2,3-TRIMETHYLPENTANE	272.65
560-21-4	2,3,3-TRIMETHYLPENTANE	275.575532195266
565-75-3	2,3,4-TRIMETHYLPENTANE	272.21662328135
594-82-1	2,2,3,3-TETRAMETHYLBUTANE	274.992724989292
111-84-2	n-NONANE	304.15
3522-94-9	2,2,5-TRIMETHYLHEXANE	282.15
7154-80-5	3,3,5-TRIMETHYLHEPTANE	304
16747-30-1	2,4,4-TRIMETHYLHEXANE	283.15
1067-20-5	3,3-DIETHYLPENTANE	294
7154-79-2	2,2,3,3-TETRAMETHYLPENTANE	294.65
1186-53-4	2,2,3,4-TETRAMETHYLPENTANE	284
1070-87-7	2,2,4,4-TETRAMETHYLPENTANE	278.15
16747-38-9	2,3,3,4-TETRAMETHYLPENTANE	286.954583648052
111-01-3	SQUALANE	482.80440630934
124-18-5	n-DECANE	322.85
1678-98-4	iso-BUTYLCYCLOHEXANE	315.65
1120-21-4	n-UNDECANE	339.05
629-50-5	n-TRIDECANE	363.15
629-59-4	n-TETRADECANE	380.645731660796
544-76-3	n-HEXADECANE	399.749320715424
629-78-7	n-HEPTADECANE	405.354296275792
629-92-5	n-NONADECANE	420.487680931938
1465084	3-METHYLNONANE	319.15
871-83-0	2-METHYLNONANE	314
17301-94-9	4-METHYLNONANE	317.15
15869-85-9	5-METHYLNONANE	312
909554	2,2,4,4,6,8,8-HEPTAMETHYLNONANE	338.350502815926
2216-33-3	3-METHYLOCTANE	298.65
2216-34-4	4-METHYLOCTANE	296.15
15869-80-4	3-ETHYLHEPTANE	296.15
1071-26-7	2,2-DIMETHYLHEPTANE	292.15
1640-89-7	ETHYLCYCLOPENTANE	273.000145072296
108-87-2	METHYLCYCLOHEXANE	269.15
1678-91-7	ETHYLCYCLOHEXANE	291.15
590-66-9	1,1-DIMETHYLCYCLOHEXANE	279.932793743754
112134	cis-1,2-DIMETHYLCYCLOHEXANE	288.15
638-04-0	cis-1,3-DIMETHYLCYCLOHEXANE	283.15
624-29-3	cis-1,4-DIMETHYLCYCLOHEXANE	284.26
112227	trans-1,4-DIMETHYLCYCLOHEXANE	283.853485507654
1795-26-2	1-trans-3,5-TRIMETHYLCYCLOHEXANE	292.15
696-29-7	ISOPROPYLCYCLOHEXANE	308.15
1678-93-9	n-BUTYLCYCLOHEXANE	325.65
493-01-6	cis-DECAHYDRONAPHTHALENE	334.15
493-02-7	trans-DECAHYDRONAPHTHALENE	327.15
92-51-3	BICYCLOHEXYL	358.15
78-01-3	1,1-DIETHYLCYCLOHEXANE	322.15
291-64-5	CYCLOHEPTANE	280.15
292-64-8	CYCLOOCTANE	303.15
1072-05-5	2,6-DIMETHYLHEPTANE	290.65
1068-87-7	2,4-DIMETHYL-3-ETHYLPENTANE	291.15
109-67-1	1-PENTENE	222
646-04-8	trans-2-PENTENE	228
563-45-1	3-METHYL-1-BUTENE	217.15
513-35-9	2-METHYL-2-BUTENE	227.49021786811
592-41-6	1-HEXENE	247.15
13269-52-8	trans-3-HEXENE	248.15
760-20-3	3-METHYL-1-PENTENE	241.003648127434
760-21-4	2-ETHYL-1-BUTENE	246.981520717862
558-37-2	3,3-DIMETHYL-1-BUTENE	220.872946182768
563-79-1	2,3-DIMETHYL-2-BUTENE	229.847593717852
592-76-7	1-HEPTENE	265.15
6443-92-1	cis-2-HEPTENE	270.95
1531866	2-METHYL-1-HEXENE	265.918604260746
3404-61-3	3-METHYL-1-HEXENE	261.730906181948
6434-78-2	trans-2-NONENE	305.15
594-56-9	2,3,3-TRIMETHYL-1-BUTENE	254.376782770916
111-66-0	1-OCTENE	284.65
13389-42-9	trans-2-OCTENE	287.15
107-40-4	2,4,4-TRIMETHYL-2-PENTENE	272.15
124-11-8	1-NONENE	299.15
872-05-9	1-DECENE	320.15
112-41-4	1-DODECENE	346.15
13360-61-7	1-PENTADECENE	385.15
629-73-2	1-HEXADECENE	398.942306260868
142-29-0	CYCLOPENTENE	219.027256933426
110-83-8	CYCLOHEXENE	256.15
628-92-2	CYCLOHEPTENE	280.65
931-88-4	CYCLOOCTENE	298.15
2097322	cis-2-OCTENE	290.65
14919-01-8	trans-3-OCTENE	287.15
7642-15-1	cis-4-OCTENE	285.65
14850-23-8	trans-4-OCTENE	285.65
14850-22-7	cis-3-OCTENE	290
100-40-3	VINYLCYCLOHEXENE	288.15
693-89-0	1-METHYLCYCLOPENTENE	248.105952063226
16746-86-4	2,3-DIMETHYL-1-HEXENE	281
5989-27-5	d-LIMONENE	321
586-62-9	TERPINOLENE	326.287818561766
106-99-0	1,3-BUTADIENE	197.15
592-42-7	1,5-HEXADIENE	243.006871982966
592-45-0	1,4-HEXADIENE	248.15
5194-51-4	trans,trans-2,4-HEXADIENE	259.123101777484
77-73-6	DICYCLOPENTADIENE	318.15
99-83-2	alpha-PHELLANDRENE	322
555-10-2	beta-PHELLANDRENE	322.15
513-81-5	2,3-DIMETHYL-1,3-BUTADIENE	245.981251326922
5194-50-3	cis,trans-2,4-HEXADIENE	261.490196448218
706-31-0	1,5,9-CYCLODODECATRIENE	360.15
627-58-7	2,5-DIMETHYL-1,5-HEXADIENE	277.985535016478
764-13-6	2,5-DIMETHYL-2,4-HEXADIENE	286.298904956522
628-41-1	1,4-CYCLOHEXADIENE	257.630879647742
111-78-4	1,5-CYCLOOCTADIENE	306.670735383842
20237-34-7	trans-1,3-HEXADIENE	254.15
764-35-2	2-HEXYNE	262.15
627-21-4	2-PENTYNE	243
629-05-0	1-OCTYNE	289.15
567104	1-NONYNE	306.15
764-93-2	1-DECYNE	315.65
71-43-2	BENZENE	253.637672794032
108-88-3	TOLUENE	279.15
100-41-4	ETHYLBENZENE	296.15
95-47-6	o-XYLENE	304.992099231776
108-38-3	m-XYLENE	298.15
106-42-3	p-XYLENE	299
103-65-1	n-PROPYLBENZENE	312.15
611-14-3	o-ETHYLTOLUENE	316.15
620-14-4	m-ETHYLTOLUENE	311.15
622-96-8	p-ETHYLTOLUENE	312.15
526-73-8	1,2,3-TRIMETHYLBENZENE	324.15
95-63-6	1,2,4-TRIMETHYLBENZENE	317.650579633882
108-67-8	MESITYLENE	317.55
538-93-2	ISOBUTYLBENZENE	319.918578855456
135-98-8	sec-BUTYLBENZENE	325
98-06-6	tert-BUTYLBENZENE	317.15
135-01-3	o-DIETHYLBENZENE	330.37
141-93-5	m-DIETHYLBENZENE	329
105-05-5	p-DIETHYLBENZENE	330
488-23-3	1,2,3,4-TETRAMETHYLBENZENE	343.607855730302
95-93-2	1,2,4,5-TETRAMETHYLBENZENE	338.682404376816
717-74-8	1,3,5-TRIISOPROPYLBENZENE	359.82
700-12-9	PENTAMETHYLBENZENE	364.15
877-44-1	1,2,4-TRIETHYLBENZENE	346.977375310284
1078-71-3	n-HEPTYLBENZENE	370.65
827-52-1	CYCLOHEXYLBENZENE	372
92-94-4	p-TERPHENYL	467.025519503492
92-06-8	m-TERPHENYL	461.772471855156
84-15-1	o-TERPHENYL	436
103-29-7	1,2-DIPHENYLETHANE	393.864788717224
538-68-1	n-PENTYLBENZENE	339.15
1077-16-3	n-HEXYLBENZENE	356.15
2189-60-8	n-OCTYLBENZENE	380.15
2039-93-2	2-PHENYLBUTENE-1	325.15
100-42-5	STYRENE	301.847669283288
611-15-4	o-METHYLSTYRENE	320.15
100-80-1	m-METHYLSTYRENE	315.98005038521
6047-69-4	5-o-TOLYL-2-PENTENE	360.775865446904
7564-63-8	o-ETHYLSTYRENE	332.099804940984
7525-62-4	m-ETHYLSTYRENE	329.995851480938
622-97-9	p-METHYLSTYRENE	320.65
98-83-9	alpha-METHYLSTYRENE	315.65
108-57-6	m-DIVINYLBENZENE	333.337999533878
536-74-3	ETHYNYLBENZENE	304.15
766-90-5	cis-1-PROPENYLBENZENE	320.65
873-66-5	trans-1-PROPENYLBENZENE	322.758555917714
91-20-3	NAPHTHALENE	353.15
90-12-0	1-METHYLNAPHTHALENE	367.15
91-57-6	2-METHYLNAPHTHALENE	370.15
1127-76-0	1-ETHYLNAPHTHALENE	382.727036492646
119-64-2	1,2,3,4-TETRAHYDRONAPHTHALENE	344
939-27-5	2-ETHYLNAPHTHALENE	377.15
95-13-6	INDENE	331.15
85-01-8	PHENANTHRENE	436.88299594003
281-23-2	ADAMANTANE	313.651574804202
3048-64-4	VINYLNORBORNENE	295.15
702-79-4	1,3-DIMETHYLADAMANTANE	325.15
496-11-7	INDANE	321.65
99-86-5	alpha-TERPINENE	319.15
99-85-4	gamma-TERPINENE	325.65
498-66-8	2-NORBORNENE	258.15
16219-75-3	5-ETHYLIDENE-2-NORBORNENE	298.15
1883929	sec-BUTYLCYCLOHEXANE	323.65
280-33-1	BICYCLO[2,2,2]OCTANE	279.711325377492
79-92-5	CAMPHENE	307.15
80-56-8	alpha-PINENE	303.76371738504
127-91-3	beta-PINENE	310.65
75-07-0	ACETALDEHYDE	217.070392691596
123-38-6	PROPANAL	243.15
100-50-5	1,2,3,6-TETRAHYDROBENZALDEHYDE	319.408886940616
123-72-8	BUTANAL	262.15
78-84-2	2-METHYLPROPANAL	253.345735236732
110-62-3	PENTANAL	283.20184033897
111-71-7	HEPTANAL	308.15
66-25-1	HEXANAL	300
124-13-0	OCTANAL	324.15
124-19-6	NONANAL	336.15
123-05-7	2-ETHYLHEXANAL	317.59
623-36-9	2-METHYL-2-PENTENAL	304.15
645-62-5	2-ETHYL-2-HEXENAL	329.65
112-31-2	DECANAL	358.15
112-44-7	UNDECANAL	369.15
112-54-9	DODECANAL	374.15
96-17-3	2-METHYLBUTYRALDEHYDE	269.15
590-86-3	3-METHYLBUTYRALDEHYDE	270.15
107-02-8	ACROLEIN	247.15
123-73-9	trans-CROTONALDEHYDE	286.15
78-85-3	METHACROLEIN	258.15
93-53-8	2-PHENYLPROPIONALDEHYDE	342
529-20-4	o-TOLUALDEHYDE	340.15
100-52-7	BENZALDEHYDE	334.234513781882
90-02-8	SALICYLALDEHYDE	349.15
620-23-5	m-TOLUALDEHYDE	344.859609105034
96-22-0	3-PENTANONE	278.848581165706
108-10-1	METHYL ISOBUTYL KETONE	281.250311329728
565-61-7	3-METHYL-2-PENTANONE	285.15
109-49-9	5-HEXEN-2-ONE	290.782495772212
106-35-4	3-HEPTANONE	310.15
123-19-3	4-HEPTANONE	307.15
107-87-9	2-PENTANONE	272.046025182632
563-80-4	METHYL ISOPROPYL KETONE	272.15
591-78-6	2-HEXANONE	291.410232725762
110-43-0	2-HEPTANONE	308.146517885794
110-12-3	5-METHYL-2-HEXANONE	299.56754340669
141-79-7	MESITYL OXIDE	301
75-97-8	3,3-DIMETHYL-2-BUTANONE	274.562498949548
108-83-8	DIISOBUTYL KETONE	321.305604936232
565-80-0	DIISOPROPYL KETONE	288.15
616-45-5	2-PYRROLIDONE	396.144211694662
872-50-4	N-METHYL-2-PYRROLIDONE	359.15
502-56-7	5-NONANONE	338.15
821-55-6	2-NONANONE	333.893742680148
84-65-1	ANTHRAQUINONE	466.341443429952
78-59-1	ISOPHORONE	350.65
120-92-3	CYCLOPENTANONE	299
108-94-1	CYCLOHEXANONE	316.15
98-86-2	ACETOPHENONE	350.15
57-57-8	beta-PROPIOLACTONE	326.580211025342
96-48-0	gamma-BUTYROLACTONE	366.172132160884
502-44-3	epsilon-CAPROLACTONE	382.15
108-29-2	gamma-VALEROLACTONE	367.41734892594
565-69-5	ETHYL ISOPROPYL KETONE	285.150520858902
814-78-8	METHYL ISOPROPENYL KETONE	278.15
674-82-8	DIKETENE	307
67-56-1	METHANOL	242.183108845506
64-17-5	ETHANOL	260.009281065906
71-23-8	1-PROPANOL	276.53612566053
67-63-0	ISOPROPANOL	263.35322536765
71-36-3	1-BUTANOL	295.527730851122
78-83-1	2-METHYL-1-PROPANOL	283.516589935914
78-92-2	2-BUTANOL	279.766023320802
75-65-0	2-METHYL-2-PROPANOL	269.707415002256
71-41-0	1-PENTANOL	311.677466536824
6032-29-7	2-PENTANOL	297.062487929554
75-85-4	2-METHYL-2-BUTANOL	284.919438438452
137-32-6	2-METHYL-1-BUTANOL	302.31626228721
75-84-3	2,2-DIMETHYL-1-PROPANOL	285.401118713462
111-27-3	1-HEXANOL	328.328013760128
626-93-7	2-HEXANOL	315.590484251706
623-37-0	3-HEXANOL	309.98602734925
105-30-6	2-METHYL-1-PENTANOL	323.15
589-35-5	3-METHYL-1-PENTANOL	322.14822530935
77-74-7	3-METHYL-3-PENTANOL	297.15
584-02-1	3-PENTANOL	295.285341499834
104-76-7	2-ETHYL-1-HEXANOL	346
624-22-6	2-METHYL-1-HEXANOL	333.65
123-51-3	3-METHYL-1-BUTANOL	304.18146893205
598-75-4	3-METHYL-2-BUTANOL	283.341216915964
543-49-7	2-HEPTANOL	331.419463094272
589-82-2	3-HEPTANOL	327.15
627-98-5	5-METHYL-1-HEXANOL	338.15
108-11-2	4-METHYL-2-PENTANOL	304.890145755208
111-87-5	1-OCTANOL	355.40519946493
123-96-6	2-OCTANOL	344.15
143-08-8	1-NONANOL	369.15
628-99-9	2-NONANOL	355.15
112-30-1	1-DECANOL	377.15
112-42-5	1-UNDECANOL	386.15
55505-26-5	8-METHYL-1-NONANOL	370.65
112-53-8	1-DODECANOL	400
112-72-1	1-TETRADECANOL	421.15
36653-82-4	1-HEXADECANOL	443
112-92-5	1-OCTADECANOL	458.15
97-95-0	2-ETHYL-1-BUTANOL	318.858223155266
108-93-0	CYCLOHEXANOL	319.910897730188
7443-70-1	cis-2-METHYLCYCLOHEXANOL	327.294951095754
7443-52-9	trans-2-METHYLCYCLOHEXANOL	330.300519741632
7731-28-4	cis-4-METHYLCYCLOHEXANOL	324.311657033388
2216-51-5	L-MENTHOL	366.15
97-99-4	TETRAHYDROFURFURYL ALCOHOL	343.15
107-18-6	ALLYL ALCOHOL	278.147241546418
617-94-7	2-PHENYL-2-PROPANOL	349.191906811578
735273	2-BUTYL-OCTAN-1-OL	382.15
526-75-0	2,3-XYLENOL	368.15
105-67-9	2,4-XYLENOL	355.973792760292
34885-03-5	4-METHYL-CYCLOHEXANE-METHANOL	343.581999775808
95-87-4	2,5-XYLENOL	356.272937119352
576-26-1	2,6-XYLENOL	358.15
108-95-2	PHENOL	340.385280448438
95-48-7	o-CRESOL	350.761894117506
108-39-4	m-CRESOL	359.15
106-44-5	p-CRESOL	359.15
90-00-6	o-ETHYLPHENOL	358.15
123-31-9	p-HYDROQUINONE	438
123-07-9	p-ETHYLPHENOL	373.15
98-54-4	p-tert-BUTYLPHENOL	386
107-21-1	ETHYLENE GLYCOL	365.262344628008
111-46-6	DIETHYLENE GLYCOL	406.546325952356
112-27-6	TRIETHYLENE GLYCOL	429.15
112-60-7	TETRAETHYLENE GLYCOL	465.926980694672
57-55-6	1,2-PROPYLENE GLYCOL	358.652431792038
25265-71-8	DIPROPYLENE GLYCOL	391
126-30-7	NEOPENTYL GLYCOL	375.851087832066
24800-44-0	TRIPROPYLENE GLYCOL	407.231612046916
2163-42-0	2-METHYL-1,3-PROPANEDIOL	385.599040498548
107-88-0	1,3-BUTANEDIOL	382
107-41-5	HEXYLENE GLYCOL	366
56-81-5	GLYCEROL	446.989213229
98-29-3	p-tert-BUTYLCATECHOL	425
144-19-4	2,2,4-TRIMETHYL-1,3-PENTANEDIOL	382.65
149-31-5	2-METHYL-1,3-PENTANEDIOL	383.15
513-85-9	2,3-BUTANEDIOL	351.543931934336
6117-80-2	cis-2-BUTENE-1,4-DIOL	401.15
821-11-4	trans-2-BUTENE-1,4-DIOL	396.135029054736
110-63-4	1,4-BUTANEDIOL	386.468872861964
120-80-9	1,2-BENZENEDIOL	400
108-46-3	1,3-BENZENEDIOL	417.315687735176
115-77-5	PENTAERYTHRITOL	523.768491446498
64-18-6	FORMIC ACID	270.026364509246
64-19-7	ACETIC ACID	298.573765999522
79-09-4	PROPIONIC ACID	315.36554456884
334-48-5	n-DECANOIC ACID	410.251757969206
107-92-6	n-BUTYRIC ACID	332.968511649662
109-52-4	n-PENTANOIC ACID	352.21562862206
79-31-2	ISOBUTYRIC ACID	333.15
503-74-2	ISOVALERIC ACID	342.26135850502
142-62-1	n-HEXANOIC ACID	365.220286310752
4536-23-6	2-METHYLHEXANOIC ACID	370.65
124-07-2	n-OCTANOIC ACID	388.837282915586
1123-00-8	CYCLOPENTYLACETIC ACID	377.848065501624
143-07-7	n-DODECANOIC ACID	433.895163318304
503-64-0	cis-CROTONIC ACID	353.15
107-93-7	trans-CROTONIC ACID	363.15
57-11-4	n-OCTADECANOIC ACID	469
79-10-7	ACRYLIC ACID	324
79-41-4	METHACRYLIC ACID	340
112-80-1	OLEIC ACID	462
65-85-0	BENZOIC ACID	394.26
69-72-7	SALICYLIC ACID	401.96895303772
88-99-3	PHTHALIC ACID	441.15
100-21-0	TEREPHTHALIC ACID	433.081872250418
79-21-0	PERACETIC ACID	313.15
108-24-7	ACETIC ANHYDRIDE	322.59
123-62-6	PROPIONIC ANHYDRIDE	328.0398832914
106-31-0	BUTYRIC ANHYDRIDE	351.785080968066
108-30-5	SUCCINIC ANHYDRIDE	419.415079676268
108-55-4	GLUTARIC ANHYDRIDE	438.136384584534
85-44-9	PHTHALIC ANHYDRIDE	425
108-31-6	MALEIC ANHYDRIDE	372.815066394216
552-30-7	TRIMELLITIC ANHYDRIDE	522.5
110-74-7	n-PROPYL FORMATE	266.092266286704
592-84-7	n-BUTYL FORMATE	286.15
542-55-2	ISOBUTYL FORMATE	274.761882690074
112-32-3	n-OCTYL FORMATE	349.5
79-20-9	METHYL ACETATE	242.908869978274
141-78-6	ETHYL ACETATE	263.360006302586
109-60-4	n-PROPYL ACETATE	283.71
123-86-4	n-BUTYL ACETATE	298.15
110-19-0	ISOBUTYL ACETATE	291
123-92-2	ISOPENTYL ACETATE	306.15
591-87-7	ALLYL ACETATE	283.837696163642
105-46-4	sec-BUTYL ACETATE	289
554-12-1	METHYL PROPIONATE	258.501556734684
105-37-3	ETHYL PROPIONATE	272.54773870646
106-36-5	n-PROPYL PROPIONATE	294.15
590-01-2	n-BUTYL PROPIONATE	310.015499319874
105-66-8	n-PROPYL n-BUTYRATE	309.424840750178
623-42-7	METHYL n-BUTYRATE	276.014627212246
105-54-4	ETHYL n-BUTYRATE	292.394850381536
96-33-3	METHYL ACRYLATE	262.843276049092
140-88-5	ETHYL ACRYLATE	279.557467044278
141-32-2	n-BUTYL ACRYLATE	310.15
108-64-5	ETHYL ISOVALERATE	299.15
80-62-6	METHYL METHACRYLATE	273.420881645398
2210-28-8	n-PROPYL METHACRYLATE	306.15
117-81-7	DIOCTYL PHTHALATE	456.955181071096
628-63-7	n-PENTYL ACETATE	310.15
103-09-3	2-ETHYLHEXYL ACETATE	344.15
140-11-4	BENZYL ACETATE	361.419297302776
97-85-8	ISOBUTYL ISOBUTYRATE	305.297101989326
659-70-1	ISOPENTYL ISOVALERATE	333.15
136-60-7	n-BUTYL BENZOATE	379.15
112-14-1	n-OCTYL ACETATE	356.15
143-13-5	n-NONYL ACETATE	369.871809754038
112-17-4	n-DECYL ACETATE	383.410579327464
119-36-8	METHYL SALICYLATE	369
84-69-5	DIISOBUTYL PHTHALATE	422.816878997616
1459-93-4	DIMETHYL ISOPHTHALATE	411.15
84-75-3	DI-n-HEXYL PHTHALATE	466.15
123-95-5	n-BUTYL STEARATE	433.15
109-43-3	DIBUTYL SEBACATE	437.841413262444
109-21-7	n-BUTYL n-BUTYRATE	323.15
103-11-7	2-ETHYLHEXYL ACRYLATE	355.15
111-55-7	ETHYLENE GLYCOL DIACETATE	349.789976790452
97-86-9	ISOBUTYL METHACRYLATE	314.15
97-88-1	n-BUTYL METHACRYLATE	322
93-58-3	METHYL BENZOATE	349.679272927654
93-89-0	ETHYL BENZOATE	359.754060390982
95-92-1	DIETHYL OXALATE	348.15
105-53-3	DIETHYL MALONATE	358.15
110-42-9	METHYL DECANOATE	367.15
110-27-0	ISOPROPYL MYRISTATE	423.242601323866
60-29-7	DIETHYL ETHER	228.15
108-20-3	DIISOPROPYL ETHER	245
1634-04-4	METHYL tert-BUTYL ETHER	240.447206223802
6863-58-7	DI-sec-BUTYL ETHER	285.65
540-67-0	METHYL ETHYL ETHER	185.751749483048
112-58-3	DI-n-HEXYL ETHER	354.65
109-93-3	DIVINYL ETHER	179.421395795802
628-32-0	ETHYL PROPYL ETHER	248.668864126964
104-46-1	ANETHOLE	362.15
123-91-1	1,4-DIOXANE	284.15
110-88-3	TRIOXANE	293.203034274196
6163-66-2	DI-tert-BUTYL ETHER	271.426751871962
629-82-3	DI-n-OCTYL ETHER	396.79407642753
693-65-2	DI-n-PENTYL ETHER	330.15
6795-87-5	METHYL sec-BUTYL ETHER	243
637-92-3	tert-BUTYL ETHYL ETHER	253.15
105-57-7	ACETAL	273.5184578442
3031-74-1	ETHYL HYDROPEROXIDE	283.474084969566
558-30-5	1,2-EPOXY-2-METHYLPROPANE	241.15
75-56-9	1,2-PROPYLENE OXIDE	231.730227184524
111-34-2	BUTYL VINYL ETHER	272
112-49-2	TRIETHYLENE GLYCOL DIMETHYL ETHER	352.39484614839
110-71-4	1,2-DIMETHOXYETHANE	268.957103008788
111-96-6	DIETHYLENE GLYCOL DIMETHYL ETHER	326.457687398906
143-24-8	TETRAETHYLENE GLYCOL DIMETHYL ETHER	409.409235472796
112-36-7	DIETHYLENE GLYCOL DIETHYL ETHER	342.598068486242
112-73-2	DIETHYLENE GLYCOL DI-n-BUTYL ETHER	386.762150927056
100-66-3	ANISOLE	316.159512323442
103-73-1	PHENETOLE	328
103-50-4	DIBENZYL ETHER	408.15
106-92-3	ALLYL GLYCIDYL ETHER	321.15
101-84-8	DIPHENYL ETHER	388.15
534-15-6	1,1-DIMETHOXYETHANE	252.42681315317
107-25-5	METHYL VINYL ETHER	201.886339661292
106-88-7	1,2-EPOXYBUTANE	252.270328939306
75-91-2	t-BUTYL HYDROPEROXIDE	299.82
80-43-3	DICUMYL PEROXIDE	344.15
1708-29-8	2,5-DIHYDROFURAN	251.320595965662
110-00-9	FURAN	219.870932702242
109-99-9	TETRAHYDROFURAN	249.336452940534
132-64-9	DIBENZOFURAN	398.48981375872
110-05-4	DI-t-BUTYL PEROXIDE	276.995680303306
4265-25-2	2-METHYLBENZOFURAN	340.15
7778-85-0	1,2-DIMETHOXYPROPANE	273.15
110-57-6	1,4-DICHLORO-trans-2-BUTENE	326.15
110-56-5	1,4-DICHLOROBUTANE	325.15
75-34-3	1,1-DICHLOROETHANE	263.15
107-06-2	1,2-DICHLOROETHANE	272.506608500738
78-87-5	1,2-DICHLOROPROPANE	284.076731049672
75-29-6	ISOPROPYL CHLORIDE	226.235111873706
96-18-4	1,2,3-TRICHLOROPROPANE	331.361469187538
616-21-7	1,2-DICHLOROBUTANE	298.65
7581-97-7	2,3-DICHLOROBUTANE	291.15
79-01-6	TRICHLOROETHYLENE	280.838268929394
100-44-7	BENZYL CHLORIDE	333.15
608-23-1	3-CHLORO-o-XYLENE	341.25958469937
615-60-1	4-CHLORO-o-XYLENE	340.15
108-90-7	MONOCHLOROBENZENE	301.15
95-50-1	o-DICHLOROBENZENE	339
541-73-1	m-DICHLOROBENZENE	336.15
106-46-7	p-DICHLOROBENZENE	339
118-74-1	HEXACHLOROBENZENE	469.554920923144
95-49-8	o-CHLOROTOLUENE	316.15
106-43-4	p-CHLOROTOLUENE	322.15
95-73-8	2,4-DICHLOROTOLUENE	352.15
156-59-2	cis-1,2-DICHLOROETHYLENE	255.986840431756
156-60-5	trans-1,2-DICHLOROETHYLENE	245.389570665454
126-99-8	CHLOROPRENE	253.15
109-69-3	n-BUTYL CHLORIDE	263.75
78-86-4	sec-BUTYL CHLORIDE	255.177465192658
543-59-9	1-CHLOROPENTANE	284.15
90-13-1	1-CHLORONAPHTHALENE	394.000859048706
75-35-4	1,1-DICHLOROETHYLENE	234.931957940538
120-82-1	1,2,4-TRICHLOROBENZENE	371.629843304828
1476-11-5	1,4-DICHLORO-cis-2-BUTENE	328.15
557-98-2	2-CHLOROPROPENE	213.578316682134
760-23-6	3,4-DICHLORO-1-BUTENE	299.16345429335
10075-38-4	(Z)-1,3-DICHLORO-2-BUTENE	300.15
98-87-3	BENZYL DICHLORIDE	361.15
108-36-1	m-DIBROMOBENZENE	366.15
108-86-1	BROMOBENZENE	313.449895246002
124-40-3	DIMETHYLAMINE	208.826616055132
121-44-8	TRIETHYLAMINE	262.15
142-84-7	DI-n-PROPYLAMINE	280.65
927-62-8	N,N-DIMETHYL-n-BUTYLAMINE	270.15
616-39-7	N,N-DIETHYLMETHYLAMINE	250.15
109-89-7	DIETHYLAMINE	245.15
110-58-7	n-PENTYLAMINE	280.15
78-81-9	ISOBUTYLAMINE	251.43632446105
110-96-3	DIISOBUTYLAMINE	297.35
75-31-0	ISOPROPYLAMINE	225.382101476856
109-97-7	PYRROLE	293.814706282948
105-59-9	METHYL DIETHANOLAMINE	411.15
102-71-6	TRIETHANOLAMINE	463.15
13952-84-6	sec-BUTYLAMINE	254.15
108-91-8	CYCLOHEXYLAMINE	299.65
1446-61-3	DEHYDROABIETYLAMINE	464
124-09-4	HEXAMETHYLENEDIAMINE	354.15
100-46-9	BENZYLAMINE	338.15
95-53-4	o-TOLUIDINE	349.111386174162
108-44-1	m-TOLUIDINE	349.245445406498
106-49-0	p-TOLUIDINE	351.787295423358
112-24-3	TRIETHYLENETETRAMINE	408.15
107-15-3	ETHYLENEDIAMINE	303.338978446782
151-56-4	ETHYLENEIMINE	233.684681241376
108-18-9	DIISOPROPYLAMINE	265.995125655332
111-92-2	DI-n-BUTYLAMINE	315
110-89-4	PIPERIDINE	280.15
101-54-2	p-AMINODIPHENYLAMINE	466.5
91-22-5	QUINOLINE	372.024756535714
78-90-0	1,2-PROPANEDIAMINE	306.15
91-66-7	N,N-DIETHYLANILINE	352.64719490742
96-54-8	N-METHYLPYRROLE	281.925055680386
122-39-4	DIPHENYLAMINE	419.049567033958
91-63-4	QUINALDINE	377.351407422072
75-52-5	NITROMETHANE	304.856243195044
79-24-3	NITROETHANE	290.110365951524
108-03-2	1-NITROPROPANE	308.15
79-46-9	2-NITROPROPANE	300.561651794172
110-91-8	MORPHOLINE	308.15
123-75-1	PYRROLIDINE	264.40579952399
120-94-5	N-METHYLPYRROLIDINE	259
627-05-4	1-NITROBUTANE	320.15
75-05-8	ACETONITRILE	275.15
107-13-1	ACRYLONITRILE	268.15
110-61-2	SUCCINONITRILE	405
88-72-2	o-NITROTOLUENE	359.892174058916
99-99-0	p-NITROTOLUENE	379
99-08-1	m-NITROTOLUENE	374.087307452752
109-74-0	n-BUTYRONITRILE	291.15