CAS	Chemical	MW	Tc	Pc	Vc	Zc
1333-74-0	Hydrogen	2.0159	33.2	1296960	0.000065	0.305
7782-39-0	deuterium	4.032	38.4	1661730		
13550-49-7	ammonia-d3	20.052	405.6			
13537-03-6	phosphine-d3	37.022	323.6			
7789-20-0	deuterium oxide	20.031	644	21663285	0.000056	0.23
10024-97-2	nitrous oxide	44.013	309.56	7244737.5	0.0000974	0.274
1314-68-7	rhenium heptoxide	484.4	942		0.000334	
7783-07-5	hydrogen selenide (h2se)	81.01	411	8916600		
463-58-1	carbonyl sulfide	60.07	375	5876850	0.00014	0.26
13812-43-6	cis-1,2-Difluorodiimide	66.01	272			
13776-62-0	trans-1,2-Difluorodiazene	66.01	260			
7698-05-7	Deuterium chloride	37.47	323.4			
10026-12-7	niobium pentachloride	270.17	807		0.0004	
13451-11-1	tantalum bromide (tabr5)	580.49	974		0.000461	
14104-45-1	(2h)hydrogen iodide	128.92	421.8			
13986-26-0	zirconium iodide	598.84	960		0.00053	
18356-71-3	silane, dichlorodifluoro-	136.99	369	3495712.5		
14335-40-1	Phosphorus chloride difluoride	104.42	362.4	4519095		
15597-63-4	phosphorus dichloromonofluoride	120.88	463	4964925		
7727-18-6	vanadyl chloride	173.3	636		0.00029	
13520-78-0	Tungsten oxide tetrachloride	341.66	782		0.000338	
13814-76-1	Rhenium oxytetrachloride	344	781		0.00036	
12265-14-4	chlorophosphane	70.46	322.2	7366327.5		
14700-00-6	cyclo-tetrakis(difluorophosphonitrile)	331.91	496.4			
19258-92-5	cyclo-pentakis(difluorophosphonitrile)	414.88	524			