CASRN	Chemical	Tc	Pc	omega
74-82-8	Methane	190.577777777778	4604318.92037759	0.0072
74-84-0	Ethane	305.422222222222	4880109.21210431	0.0908
74-98-6	Propane	369.822222222222	4249238.91977944	0.1454
106-97-8	n-Butane	425.177777777778	3796942.84134762	0.1928
75-28-5	2-Methylpropane	408.138888888889	3648016.08381519	0.1756
109-66-0	Pentane	469.65	3368778.41344188	0.251
78-78-4	2-Methylbutane	460.427777777778	3381188.97656959	0.2273
3744-21-6	2,2-Dimethylpropane	433.777777777778	3199167.38402995	0.197
110-54-3	n-Hexane	507.427777777778	3012319.4613851	0.2957
107-83-5	2-Methylpentane	497.5	3010251.03419715	0.2791
96-14-0	3-Methylpentane	504.427777777778	3124014.52953442	0.275
75-83-2	2,2-Dimethylbutane	488.777777777778	3080577.55858746	0.231
79-29-8	2,3-Dimethylbutane	499.977777777778	3126772.43245169	0.2473
142-82-5	n-Heptane	540.261111111111	2735839.69392906	0.3506
40626-78-6	2-Methylhexane	530.372222222222	2733771.26674111	0.3298
589-34-4	3-Methylhexane	535.25	2813750.45134186	0.324
617-78-7	3-Ethylpentane	540.638888888889	2890971.73302534	0.3101
590-35-2	2,2-Dimethylpentane	520.5	2773071.38331217	0.2886
565-59-3	2,3-Dimethylpentane	537.35	2908208.62625826	0.2986
108-08-7	2,4-Dimethylpentane	519.788888888889	2736529.16965838	0.3059
562-49-2	3,3-Dimethylpentane	536.4	2945440.31564137	0.2697
464-06-2	2,2,3-Trimethylbutane	531.172222222222	2953714.02439317	0.251
111-65-9	n-Octane	568.827777777778	2486249.47991638	0.3942
592-27-8	2-Methylheptane	559.638888888889	2484181.05272843	0.3776
589-81-1	3-Methylheptane	563.672222222222	2546233.86836694	0.3694
589-53-7	4-Methylheptane	561.738888888889	2542097.01399104	0.3687
619-99-8	3-Ethylhexane	565.488888888889	2608286.68400545	0.3605
590-73-8	2,2-Dimethylhexane	549.872222222222	2528996.97513402	0.3376
584-94-1	2,3-Dimethylhexane	563.488888888889	2628281.48015564	0.3463
589-43-5	2,4-Dimethylhexane	553.522222222222	2556576.00430669	0.343
592-13-2	2,5-Dimethylhexane	550.061111111111	2486249.47991638	0.3519
563-16-6	3,3-Dimethylhexane	562.022222222222	2653792.08214036	0.3206
583-48-2	3,4-Dimethylhexane	568.85	2692402.7229821	0.3384
609-26-7	2-Methyl-3-ethylpentane	567.088888888889	2699986.95600459	0.3298
1067-08-9	3-Methyl-3-ethylpentane	576.577777777778	2807545.16977801	0.3037
564-02-3	2,2,3-Trimethylpentane	563.5	2729634.41236521	0.2975
540-84-1	2,2,4-Trimethylpentane	543.961111111111	2567607.61597576	0.3033
560-21-4	2,3,3-Trimethylpentane	573.561111111111	2819955.73290571	0.2901
565-75-3	2,3,4-Trimethylpentane	566.411111111111	2729634.41236521	0.3165
111-84-2	n-Nonane	594.638888888889	2289059.42133178	0.4437
16747-25-4	2,2,3-Trimethylhexane	588.038888888889	2495902.14012682	0.3321
16747-26-5	2,2,4-Trimethylhexane	573.65	2378691.26614296	0.3211
3522-94-9	2,2,5-Trimethylhexane	568.038888888889	2330427.96509078	0.3571
1067-20-5	3,3-Diethylpentane	610.038888888889	2675165.82974918	0.3379
7154-79-2	2,2,3,3-Tetramethylpentane	610.872222222222	2737218.6453877	0.2793
1186-53-4	2,2,3,4-Tetramethylpentane	592.15	2564849.7130585	0.3108
1070-87-7	2,2,4,4-Tetramethylpentane	571.372222222222	2358006.99426346	0.315
16747-38-9	2,3,3,4-Tetramethylpentane	609.038888888889	2695850.10162869	0.2994
124-18-5	n-Decane	617.65	2096006.21712307	0.4902
1120-21-4	n-Undecane	638.727777777778	1965005.82855288	0.5349
112-40-3	n-Dodecane	658.261111111111	1820215.92539635	0.5622
629-50-5	n-Tridecane	675.761111111111	1723689.323292	0.6231
629-59-4	n-Tetradecane	691.872222222222	1620267.96389448	0.6797
629-62-9	n-Pentadecane	706.761111111111	1516846.60449696	0.706
544-76-3	n-Hexadecane	720.538888888889	1420320.00239261	0.7418
629-78-7	n-Heptadecane	733.372222222222	1316898.64299509	0.7699
593-45-3	n-Octadecane	745.261111111111	1213477.28359757	0.7895
629-92-5	n-Nonadecane	755.927777777778	1116950.68149322	0.8271
112-95-8	n-Eicosane	767.038888888889	1116950.68149322	0.9065
75-19-4	Cyclopropane	397.811111111111	5495121.5626549	0.2645
287-23-0	Cyclobutane	459.927777777778	4984909.52296046	0.2089
287-92-3	Cyclopentane	511.761111111111	4507792.31827324	0.1923
96-37-7	Methylcyclopentane	532.788888888889	3784532.27821991	0.2395
1640-89-7	Ethylcyclopentane	569.522222222222	3397736.39407319	0.2826
1638-26-2	1,1-Dimethylcyclopentane	547.038888888889	3447378.646584	0.2727
1192-18-3	Cis-1,2-Dimethylcyclopentane	564.816666666667	3447378.646584	0.2692
2452-99-5	trans-1,2-Dimethylcyclopentane	553.15	3447378.646584	0.2692
2532-58-3	cis-1,3-Dimethylcyclopentane	550.927777777778	3543905.24868835	0.2975
1759-58-6	Trans-1,3-Dimethylcyclopentane	553.15	3447378.646584	0.2584
2040-96-2	N-Propylcyclopentane	603.15	2999219.42252808	0.335
3875-51-2	Isopropylcyclopentane	600.927777777778	2999219.42252808	0.24
16747-50-5	1-Methyl-1-ethylcyclopentane	592.038888888889	2988877.28658833	0.2503
930-89-2	Methyl-cis-2-ethylcyclopentane	595.927777777778	2988877.28658833	0.294
4259-00-1	1,1,2-Trimethylcyclopentane	579.538888888889	2938545.5583482	0.2516
4516-69-2	1,1,3-Trimethylcyclopentane	569.538888888889	2826850.49019888	0.2106
4850-28-6	cis,cis,trans-1,2,4-Trimethylcyclopentane	579.261111111111	2877871.69416832	0.2771
16883-48-0	cis,trans,cis-l,2,4-Trimethylcyclopentane	570.927777777778	2811682.02415391	0.2459
4457-00-5	N-Hexylcyclopentane	660.15	2137374.76088208	0.4764
5617-42-5	n-Heptylcyclopentane	678.927777777778	1951216.31396654	0.5146
1795-20-6	n-Octylcyclopentane	694.427777777778	1792636.89622368	0.5639
2882-98-6	N-Nonylcyclopentane	710.538888888889	1654741.75036032	0.6101
1795-21-7	n-Decylcyclopentane	723.761111111111	1523741.36179013	0.6538
6785-23-5	n-Undecylcyclopentane	738.372222222222	1406530.48780627	0.674
5634-30-0	N-Dodecylcyclopentane	749.872222222222	1296214.37111558	0.7193
6006-34-4	N-Tridecylcyclopentane	761.372222222222	1206582.5263044	0.7546
1795-22-8	N-Tetradecylcyclopentane	772.372222222222	1130740.19607955	0.7893
4669-01-6	N-pentadecylcyclopentane	780.372222222222	1027318.83668203	0.8333
6812-39-1	n-Hexadecylcyclopentane	790.65	972160.778336688	0.8607
110-82-7	Cyclohexane	553.538888888889	4074801.56026229	0.2144
108-87-2	Methylcyclohexane	572.188888888889	3471510.29711009	0.2333
1678-91-7	Ethylcyclohexane	609.261111111111	3033693.20899392	0.2426
590-66-9	1,1-Dimethylcyclohexane	590.927777777778	2964745.63606224	0.2376
2207-01-4	cis-1,2-Dimethylcyclohexane	605.927777777778	2964745.63606224	0.2363
6876-23-9	Trans-1,2-Dimethylcyclohexane	595.927777777778	2964745.63606224	0.2416
638-04-0	Cis-1,3-Dimethylcyclohexane	590.927777777778	2964745.63606224	0.2237
2207-03-6	Trans-1,3-Dimethylcyclohexane	598.15	2964745.63606224	0.1886
624-29-3	Cis-1,4-Dimethylcyclohexane	598.15	2964745.63606224	0.2338
2207-04-7	Trans-1,4-Dimethylcyclohexane	589.816666666667	2964745.63606224	0.2419
1678-92-8	N-Propylcyclohexane	639.261111111111	2806855.69404869	0.2577
696-29-7	Isopropylcyclohexane	639.816666666667	2837192.62613863	0.237
3073-66-3	1,1,3-Trimethylcyclohexane	612.038888888889	2695160.62589937	0.181
1678-93-9	n-Butylcyclohexane	667.038888888889	3150904.08297778	0.3618
1678-98-4	Isobutylcyclohexane	658.705555555556	3120567.15088784	0.3189
7058-01-7	Sec-Butylcyclohexane	668.705555555556	2675165.82974918	0.2643
3178-22-1	Tert-Butylcyclohexane	659.261111111111	2669650.02391465	0.252
1795-16-0	n-Decylcyclohexane	750.372222222222	1358267.1867541	0.5825
291-64-5	Cycloheptane	589.261111111111	3723168.93831072	0.3359
292-64-8	Cyclooctane	618.15	3447378.646584	0.4412
74-85-1	ethylene	282.361111111111	5031793.87255401	0.0856
115-07-1	Propene	364.761111111111	4612592.62912939	0.1477
106-98-9	1-Butene	419.594444444445	4019643.50191694	0.1874
590-18-1	cis-2-Butene	435.577777777778	4205801.94883248	0.2044
624-64-6	trans-2-Butene	428.627777777778	4102380.58943496	0.2138
115-11-7	2-Methylpropene	417.9	3998959.23003744	0.1898
109-67-1	1-Pentene	464.777777777778	4067906.80296912	0.245
627-20-3	cis-2-Pentene	475.927777777778	3654221.36537904	0.2403
646-04-8	trans-2-Pentene	475.372222222222	3654221.36537904	0.2372
563-46-2	2-Methyl-1-butene	465.372222222222	3447378.646584	0.2321
563-45-1	3-Methyl-1-butene	450.372222222222	3516326.21951568	0.2285
513-35-9	2-Methyl-2-butene	470.372222222222	3447378.646584	0.2837
592-41-6	1-Hexene	504.027777777778	3171588.35485728	0.2848
7688-21-3	cis-2-Hexene	517.594444444444	3282593.94727728	0.2555
592-43-8	trans-2-Hexene	516.483333333333	3268804.43269095	0.2421
7642-09-3	cis-3-Hexene	517.038888888889	3282593.94727728	0.2254
13269-52-8	trans-3-Hexene	519.872222222222	3254325.4423753	0.2273
625-27-4	2-Methyl-2-pentene	517.594444444444	3282593.94727728	0.2294
922-62-3	3-Methyl-cis-2-pentene	517.594444444444	3282593.94727728	0.2694
616-12-6	3-Methyl-trans-2-pentene	521.483333333333	3292936.08321704	0.2072
563-78-0	2,3-Dimethyl-1-butene	500.927777777778	3242604.35497691	0.2215
558-37-2	3,3-Dimethyl-1-butene	490.372222222222	3150904.08297778	0.1207
563-79-1	2,3-Dimethyl-2-butene	524.261111111111	3363952.08333667	0.2389
592-76-7	1-heptene	533.288888888889	2826850.49019888	0.358
762-62-9	4,4-Dimethyl-1-pentene	526.483333333333	2857187.42228882	0.1715
594-56-9	2,3,3-Trimethyl-1-butene	532.594444444444	2897866.49031851	0.1919
111-66-0	1-Octene	566.65	2620007.77140384	0.3858
111-67-1	trans-2-Octene	580.372222222222	2766176.626019	0.35
124-11-8	1-Nonene	592.038888888889	2344217.47967712	0.4299
872-05-9	1-Decene	614.816666666667	2206322.33381376	0.4912
821-95-4	1-Undecene	637.038888888889	1992584.85772555	0.518
112-41-4	1-Dodecene	657.038888888889	1854689.71186219	0.5575
2437-56-1	1-Tridecene	674.261111111111	1703005.0514125	0.5981
1120-36-1	1-Tetradecene	689.261111111111	1565109.90554914	0.6441
13360-61-7	1-Pentadecene	704.261111111111	1454793.78885845	0.6822
629-73-2	1-Hexadecene	717.038888888889	1337582.91487459	0.7213
112-88-9	1-Octadecene	739.261111111111	1144529.71066589	0.8066
463-49-0	Propadiene	393.15	5467542.53348222	0.3125
590-19-2	1,2-Butadiene	443.705555555556	4502276.5124387	0.3394
106-99-0	1,3-Butadiene	425.372222222222	4329907.5801095	0.1814
591-95-7	1,2-Pentadiene	503.15	4073422.60880365	0.1725
1574-41-0	1-cis-3-Pentadiene	498.705555555556	4012748.74462378	0.1834
504-60-9	1-trans-3-Pentadiene	496.483333333333	3992064.47274427	0.1754
591-93-5	1,4-Pentadiene	477.594444444445	3789358.60832513	0.1038
78-79-5	2-Methyl-1,3-butadiene	484.261111111111	3850032.47250501	0.1642
598-25-4	3-Methyl-1,2-butadiene	496.483333333333	3992064.47274427	0.1595
74-86-2	Ethyne	308.322222222222	6139091.89383679	0.1841
74-99-7	Propyne	402.388888888889	5627500.90268372	0.2176
107-00-6	1-Butyne	463.705555555556	4711877.13415101	0.501
71-43-2	Benzene	562.161111111111	4898035.58106655	0.21
3101-08-4	Methylbenzene	591.788888888889	4108585.87099881	0.2566
100-41-4	Ethylbenzene	617.172222222222	3609405.44297345	0.3011
95-47-6	1,2-Dimethylbenzene	630.372222222222	3732821.59852115	0.3136
108-38-3	1,3-Dimethylbenzene	617.05	3541147.34577109	0.3311
106-42-3	1,4-Dimethylbenzene	616.261111111111	3510810.41368114	0.3243
103-65-1	n-Propylbenzene	638.377777777778	3199856.85975927	0.3444
98-82-8	Isopropylbenzene	631.15	3208820.04424039	0.3353
611-14-3	1-Methyl-2-ethylbenzene	650.927777777778	3039898.49055777	0.2937
620-14-4	1-Methyl-3-ethylbenzene	637.038888888889	2837192.62613863	0.3598
622-96-8	1-Methyl-4-ethylbenzene	640.372222222222	2938545.5583482	0.3219
526-73-8	1,2,3-Trimethylbenzene	664.527777777778	3454273.40387717	0.3934
95-63-6	1,2,4-Trimethylbenzene	649.127777777778	3232262.21903716	0.3964
108-67-8	1,3,5-Trimethylbenzene	637.361111111111	3126772.43245169	0.398
104-51-8	n-Butylbenzene	660.538888888889	2886834.87864944	0.3923
538-93-2	Isobutylbenzene	650.372222222222	3033693.20899392	0.3782
135-98-8	Sec-Butylbenzene	664.538888888889	2950956.1214759	0.2736
98-06-6	tert-Butylbenzene	659.816666666667	2964745.63606224	0.2647
527-84-4	1-Methyl-2-isopropylbenzene	669.816666666667	2895798.06313056	0.2769
535-77-3	1-Methyl-3-isopropylbenzene	666.205555555556	2938545.5583482	0.2792
99-87-6	1-Methyl-4-isopropylbenzene	653.15	2826850.49019888	0.3714
105-05-5	1,4-Diethylbenzene	657.961111111111	2802718.83967279	0.4031
95-93-2	1,2,4,5-Tetramethylbenzene	675.372222222222	2964745.63606224	0.4255
92-52-4	Biphenyl	789.261111111111	3847274.56958774	0.3643
101-81-5	Diphenylmethane	767.538888888889	2982051.47686809	0.471
100-42-5	Vinylbenzene	647.594444444444	3998959.23003744	0.2572
611-15-4	1-Methyl-2-ethenylbenzene	679.261111111111	3647326.60808587	0.3755
100-80-1	1-Methyl-3-ethenylbenzene	674.816666666667	3557694.76327469	0.3415
622-97-9	1-Methyl-4-ethenylbenzene	675.927777777778	3543905.24868835	0.3128
91-20-3	Naphthalene	748.427777777778	4050669.9097362	0.3024
90-12-0	1-Methylnaphthalene	772.038888888889	3568726.37494376	0.3337
91-57-6	2-Methylnaphthalene	760.927777777778	3503226.18065866	0.3815
119-64-2	1,2,3,4-Tetrahydronaphthalene	719.261111111111	3514947.26805705	0.3028
493-01-6	Cis-Decahydronaphthalene	705.261111111111	3150904.08297778	0.2321
493-02-7	trans-Decahydronaphthalene	686.927777777778	3150904.08297778	0.2738