CASRN	Chemical	Tc	Pc	Vc	omega
62126-81-2	1-fluorotetracosane	806.26	786000	0.0013975	
62126-82-3	1-fluoropentacosane	818.02	745000	0.0014535	
62126-83-4	1-fluorohexacosane	829.26	708000	0.0015095	
62126-84-5	1,1,1-trifluoroheptadecane	710.6	1190000	0.001017	0.713
62126-85-6	1,1,1-trifluorononadecane	733.2	1060000	0.001127	0.733
62126-86-7	1,1,1-trifluoroeicosane	743.4	1000000	0.001182	0.746
62126-87-8	1,1-difluorooctatriacontane	996.21	408000	0.0021935	
62126-88-9	1,1-difluorononatriacontane	1018.78	393000	0.0022495	
62126-89-0	1,1-difluorotetracontane	1040.24	379000	0.0023055	
62126-90-3	1,2-difluoropropane	443.3	3867000	0.0002485	0.265
62126-91-4	1,1-difluoro-2-methylpropane	465.72	3560000	0.0002835	0.277
62126-92-5	1,2-difluoro-2-methylpropane	472.94	3573000	0.0002845	0.246
62126-93-6	1,3-difluoro-2-methylpropane	506.9	3526000	0.0002895	0.306
62126-94-7	1,2-difluoropentane	513.8	3156000	0.0003455	0.351
62126-95-8	1,3-difluoropentane	521.18	3156000	0.0003455	0.351
62126-96-9	1,4-difluoropentane	530.03	3156000	0.0003455	0.351
62126-97-0	1,1,1-trifluoroundecane	620	1770000	0.000687	0.564
62126-98-1	1,1,1-trifluorotridecane	654.9	1540000	0.000797	0.615
62126-99-2	1,1,1-trifluorotetradecane	670.4	1440000	0.000852	0.645
62127-00-8	1,1,1-trifluoropentadecane	684.8	1350000	0.000907	0.658
62127-01-9	1,1,1-trifluorohexadecane	698.2	1270000	0.000962	0.682
62127-02-0	1,1-difluorotridecane	672.3	1540000	0.000783	0.586
62127-03-1	1,1-difluorotetradecane	686.6	1430000	0.000838	0.595
62127-04-2	1,1-difluoropentadecane	699.8	1340000	0.000893	0.619
62127-05-3	1,1-difluorohexadecane	712.1	1250000	0.000948	0.633
62127-06-4	1,1-difluoroheptadecane	723.6	1170000	0.001003	0.643
62127-07-5	1,1-difluorooctadecane	734.4	1100000	0.001058	0.662
62127-08-6	1,1-difluorononadecane	744.5	1030000	0.001113	0.67
62127-09-7	1,1-difluoroeicosane	754	970000	0.001168	0.687
62127-10-0	1,1-difluoroheneicosane	756.52	909000	0.0012415	0.768
62127-11-1	1,1-difluorodocosane	766.65	859000	0.0012975	0.748
62127-12-2	1,1-difluorotricosane	778.63	813000	0.0013535	0.721
62127-13-3	1,1-difluorotetracosane	788.81	770000	0.0014095	
62127-14-4	1,1-difluoropentacosane	800.89	730000	0.0014655	
62127-15-5	1,1-difluorohexacosane	812.45	694000	0.0015215	
62127-16-6	1,1-difluoroheptacosane	824.74	660000	0.0015775	
62127-17-7	1,1-difluorooctacosane	836.58	629000	0.0016335	
62127-18-8	1,1-difluorononacosane	849.23	600000	0.0016895	
62127-19-9	1,1-difluorotriacontane	862.72	572000	0.0017455	
62127-20-2	1,1-difluorohentriacontane	877.11	547000	0.0018015	
62127-21-3	1,1-difluorodotriacontane	891.19	523000	0.0018575	
62127-22-4	1,1-difluorotritriacontane	906.25	501000	0.0019135	
62127-23-5	1,1-difluorotetratriacontane	922.37	480000	0.0019695	
62127-24-6	1,1-difluoropentatriacontane	939.61	460000	0.0020255	
62127-25-7	1,1-difluorohexatriacontane	958.04	442000	0.0020815	
62127-26-8	1,1-difluoroheptatriacontane	976.45	425000	0.0021375	
62127-27-9	1-fluoro-2-methylpentane	522.41	2983000	0.0003835	0.342
62127-28-0	1-fluoro-3-methylpentane	529.76	2983000	0.0003835	0.342
62127-29-1	1-fluoro-4-methylpentane	525.35	2983000	0.0003835	0.342
62127-30-4	2-fluoro-2-methylpentane	523.26	3019000	0.0003785	0.282
62127-31-5	2-fluoro-3-methylpentane	519	3009000	0.0003775	0.313
62127-32-6	2-fluoro-4-methylpentane	519	3009000	0.0003775	0.313
62127-33-7	3-fluoro-2-methylpentane	511.81	3009000	0.0003775	0.313
62127-34-8	1-fluoro-2,2-dimethylbutane	514.83	2983000	0.0003835	0.342
62127-35-9	1-fluoro-2,3-dimethylbutane	529.46	3019000	0.0003785	0.282
62127-40-6	1,1-difluoropentane	498.4	2950000	0.000343	0.38
62127-41-7	1,1-difluorohexane	529	2680000	0.000398	0.401
62127-42-8	1,1-difluorononane	602.2	2080000	0.000563	0.483
62127-43-9	1,1-difluorodecane	622	1920000	0.000618	0.512
62127-44-0	1,1-difluoroundecane	640.2	1780000	0.000673	0.541
62127-45-1	1,1-difluorododecane	656.9	1650000	0.000728	0.557
62127-46-2	1,3,3-tribromobutane	684.47	5282000	0.0004345	0.495
62127-47-3	2,3,3-tribromobutane	721.95	5344000	0.0004285	0.462
62127-48-4	1,3-dibromo-2-(bromomethyl)propane	724.93	5198000	0.0004395	0.565
62127-49-5	1,1,1,2-tetrabromopropane	788.99	6910000	0.0004345	0.552
62127-50-8	1,1,1,3-tetrabromopropane	797.25	6819000	0.0004405	0.587
62127-51-9	1-iodononadecane	820.94	1174000	0.0011185	1
62127-52-0	1-iodoheneicosane	846.44	1034000	0.0012305	0.93
62127-53-1	1-iododocosane	858.41	973000	0.0012865	0.883
62127-54-2	1-iodotricosane	872.37	917000	0.0013425	0.828
62127-55-3	1-iodotetracosane	885.88	866000	0.0013985	0.767
62127-56-4	1-iodopentacosane	899	819000	0.0014545	0.7
62127-57-5	1-iodoheptacosane	920.45	736000	0.0015665	
62127-58-6	1,1-dibromo-2-methylbutane	659.19	4195000	0.0004275	0.448
62127-59-7	1,1-dibromo-3-methylbutane	659.19	4195000	0.0004275	0.448
62127-60-0	2,2-dibromo-3-methylbutane	666.02	4255000	0.0004225	0.382
62127-61-1	1,1,1-tribromopropane	710.72	6104000	0.0003785	0.451
62127-62-2	1,1,1-tribromobutane	723.31	5282000	0.0004345	0.495
62127-63-3	1,1,1-tribromohexane	746.32	4067000	0.0005465	0.586
62127-64-4	1,1,1-tribromoheptane	756.89	3612000	0.0006025	0.632
62127-65-5	1,1,1-tribromooctane	767.84	3228000	0.0006585	0.676
62127-66-6	1,1,1-tribromononane	777.84	2903000	0.0007145	0.72
62127-67-7	1,1,1-tribromodecane	786.93	2624000	0.0007705	0.762
62127-68-8	1,1,1-tribromoundecane	795.21	2384000	0.0008265	0.802
62127-69-9	1,1,1-tribromododecane	804.01	2175000	0.0008825	0.839
62127-70-2	1,1,1-tribromotridecane	813.37	1993000	0.0009385	0.873
62127-71-3	1,1,1-tribromopentadecane	829.92	1691000	0.0010505	0.927
62127-72-4	1,1,1-tribromohexadecane	838.47	1565000	0.0011065	0.947
62127-73-5	1,1,1-tribromoheptadecane	847.65	1452000	0.0011625	0.96
62127-74-6	1,1,1-tribromooctadecane	856.21	1352000	0.0012185	0.966
62127-75-7	1,1,1-tribromononadecane	864.19	1261000	0.0012745	0.964
62127-76-8	1,1,1-tribromoeicosane	874.1	1179000	0.0013305	0.955
62154-74-9	3-iodo-1-butene	625.42	4036000	0.0003225	0.223
62154-77-2	m-ethylthiophenol	724.15	3877000	0.0004295	0.374
62154-80-7	1-iodooctacosane	943.74	699000	0.0016225	
62154-81-8	1-iodononacosane	959.36	665000	0.0016785	
62154-82-9	1-iodotriacontane	976.04	633000	0.0017345	
62154-83-0	1-iododotriacontane	1011.61	576000	0.0018465	
62154-84-1	1-iodotritriacontane	1031.91	551000	0.0019025	
62154-85-2	1-iodotetratriacontane	1052.3	542000	0.0019585	
62154-86-3	1-iodopentatriacontane	1074.15	504000	0.0020145	
62154-87-4	1-iodohexatriacontane	1096.24	483000	0.0020705	
62154-88-5	1-iodoheptatriacontane	1121.36	463000	0.0021265	
62154-89-6	1-iodooctatriacontane	1146.96	445000	0.0021825	
62154-90-9	1-iodononatriacontane	1174.54	427000	0.0022385	
62154-91-0	1-iodotetracontane	1204.29	411000	0.0022945	
62154-92-1	trans-1-iodo-1-butene	623.09	4047000	0.0003275	0.242
62155-02-6	2-undecanethiol	706	2000000	0.000692	0.563
62155-03-7	2-tridecanethiol	734	1700000	0.000802	0.635
62155-04-8	2-tetradecanethiol	746	1600000	0.000857	0.683
62155-05-9	2-pentadecanethiol	757	1500000	0.000912	0.727
62155-06-0	2-octadecanethiol	787	1200000	0.001077	0.811
62155-07-1	1-nonadecanethiol	805.29	1128000	0.0011535	0.807
62155-08-2	2-eicosanethiol	803	1000000	0.001187	0.833
62155-09-3	2-thiapentadecane	762.23	1544000	0.0008735	0.7
62155-10-6	2-thiaheptadecane	787.27	1335000	0.0009855	0.754
62155-11-7	2-thianonadecane	790	1100000	0.001085	0.999
62155-12-8	2-thiaheneicosane	832.33	1027000	0.0012095	0.795
62155-14-0	1,1-diphenyltridecane	838	1280000	0.001344	0.863
62155-15-1	1,1-diphenylpentadecane	846.7	1170000	0.001487	0.922
62155-16-2	2',3'-dimethyldiphenylmethane	792.88	2436000	0.0006595	0.521
62155-19-5	1,1-dicyclohexylnonane	805.09	1254000	0.0010775	0.68
62155-20-8	1,1-dicyclohexyldecane	812.16	1173000	0.0011335	0.702
62155-21-9	1,1-dicyclohexylundecane	818.57	1099000	0.0011895	0.719
62155-22-0	1,1-dicyclohexyltridecane	833.34	972000	0.0013015	0.734
62155-23-1	1,1-dicyclohexylpentadecane	848.27	865000	0.0014135	0.721
62155-25-3	1,1,1-tribromotetradecane	821.99	1833000	0.0009945	0.903
62155-37-7	1,1-diphenyl-1-tridecene	863.24	1190000	0.0012005	0.795
62155-38-8	1,1-diphenyl-1-tetradecene	868.99	1115000	0.0012565	0.804
62155-39-9	1,1-diphenyl-1-pentadecene	875.43	1047000	0.0013125	0.805
62168-03-0	1,1-dibromotetracosane	889.11	877000	0.0014975	0.796
62168-04-1	1,1-dibromopentacosane	901.35	830000	0.0015535	0.75
62168-05-2	1,1-dibromohexacosane	911.94	786000	0.0016095	
62168-06-3	1,1-dibromoheptacosane	924.58	745000	0.0016655	
62168-07-4	1,1-dibromooctacosane	936.86	707000	0.0017215	
62168-08-5	1,1-dibromononacosane	950.04	673000	0.0017775	
62168-09-6	1,1-dibromotriacontane	964.17	640000	0.0018335	
62168-10-9	1,1-dibromohentriacontane	979.29	610000	0.0018895	
62168-11-0	1,1-dibromodotriacontane	994.22	582000	0.0019455	
62168-12-1	1,1-dibromotritriacontane	1010.24	556000	0.0020015	
62168-13-2	1,1-dibromotetratriacontane	1027.44	532000	0.0020575	
62168-15-4	1,1-dibromohexatriacontane	1064.34	488000	0.0021695	
62168-16-5	1,1-dibromoheptatriacontane	1085.52	468000	0.0022255	
62168-17-6	1,1-dibromooctatriacontane	1106.9	449000	0.0022815	
62168-18-7	1,1-dibromononatriacontane	1129.91	431000	0.0023375	
62168-19-8	1,1-dibromotetracontane	1154.67	414000	0.0023935	
62168-25-6	1,1-dibromobutane	646.82	4717000	0.0003775	0.435
62168-26-7	1,1-dibromooctane	716.02	2954000	0.0006015	0.616
62168-27-8	1,1-dibromononane	729.44	2668000	0.0006575	0.659
62168-28-9	1,1-dibromoundecane	754.56	2208000	0.0007695	0.741
62168-29-0	1,1-dibromododecane	766.37	2022000	0.0008255	0.779
62168-30-3	1,1-dibromotridecane	777.32	1858000	0.0008815	0.813
62168-31-4	1,1-dibromotetradecane	787.47	1713000	0.0009375	0.843
62168-32-5	1,1-dibromopentadecane	798.14	1585000	0.0009935	0.869
62168-33-6	1,1-dibromohexadecane	808.08	1470000	0.0010495	0.889
62168-34-7	1,1-dibromoheptadecane	818.59	1368000	0.0011055	0.904
62168-35-8	1,1-dibromooctadecane	828.45	1276000	0.0011615	0.911
62168-36-9	1,1-dibromononadecane	837.69	1192000	0.0012175	0.912
62168-37-0	1,1-dibromoeicosane	847.57	1117000	0.0012735	0.905
62168-38-1	1,1-dibromoheneicosane	858.13	1049000	0.0013295	0.889
62168-39-2	1,1-dibromodocosane	868.14	986000	0.0013855	0.866
62168-40-5	1,1-dibromotricosane	878.87	930000	0.0014415	0.835
62168-41-6	2-bromo-3-methylpentane	594.59	3424000	0.0004215	0.373
62168-42-7	1-bromo-2,2-dimethylbutane	601.65	3392000	0.0004275	0.404
62183-50-0	2,5-dimethyl-6-ethyloctane	640.25	1817000	0.0006895	0.491
62183-51-1	2,6-dimethyl-3-ethyloctane	640.25	1817000	0.0006895	0.491
62183-52-2	2,6-dimethyl-4-ethyloctane	630.72	1817000	0.0006895	0.491
62183-53-3	2,6-dimethyl-5-ethyloctane	637.53	1817000	0.0006895	0.491
62183-54-4	2,6-dimethyl-6-ethyloctane	645.29	1822000	0.0006905	0.461
62183-55-5	2,7-dimethyl-3-ethyloctane	638.89	1817000	0.0006895	0.491
62183-56-6	2,7-dimethyl-4-ethyloctane	630.72	1817000	0.0006895	0.491
62183-57-7	3,3-dimethyl-4-ethyloctane	645.29	1822000	0.0006905	0.461
62183-58-8	3,3-dimethyl-5-ethyloctane	635.7	1822000	0.0006905	0.461
62183-59-9	3,3-dimethyl-6-ethyloctane	642.55	1822000	0.0006905	0.461
62183-60-2	3,4-dimethyl-4-ethyloctane	649.4	1822000	0.0006905	0.461
62183-61-3	3,4-dimethyl-5-ethyloctane	641.61	1817000	0.0006895	0.491
62183-62-4	3,4-dimethyl-6-ethyloctane	641.61	1817000	0.0006895	0.491
62183-63-5	3,5-dimethyl-3-ethyloctane	642.55	1822000	0.0006905	0.461
62183-64-6	3,5-dimethyl-4-ethyloctane	640.25	1817000	0.0006895	0.491
62183-65-7	3,5-dimethyl-5-ethyloctane	634.33	1822000	0.0006905	0.461
62183-66-8	3,5-dimethyl-6-ethyloctane	640.25	1817000	0.0006895	0.491
62183-67-9	3,6-dimethyl-3-ethyloctane	646.66	1822000	0.0006905	0.461
62183-68-0	3,6-dimethyl-4-ethyloctane	638.89	1817000	0.0006895	0.491
62183-69-1	4,4-dimethyl-3-ethyloctane	645.29	1822000	0.0006905	0.461
62183-70-4	4,4-dimethyl-5-ethyloctane	642.55	1822000	0.0006905	0.461
62183-71-5	4,4-dimethyl-6-ethyloctane	635.7	1822000	0.0006905	0.461
62183-72-6	4,5-dimethyl-3-ethyloctane	642.97	1817000	0.0006895	0.491
62183-73-7	4,5-dimethyl-4-ethyloctane	648.03	1822000	0.0006905	0.461
62183-74-8	2,2,3,3-tetramethyloctane	655.89	1839000	0.0006855	0.403
62183-75-9	2,2,3,4-tetramethyloctane	645.03	1834000	0.0006845	0.432
62183-76-0	2,2,3,5-tetramethyloctane	640.89	1834000	0.0006845	0.432
62183-77-1	2,2,3,6-tetramethyloctane	643.65	1834000	0.0006845	0.432
62183-78-2	2,2,3,7-tetramethyloctane	643.65	1834000	0.0006845	0.432
62183-79-3	2,2,4,4-tetramethyloctane	644.8	1839000	0.0006855	0.403
62183-80-6	2,2,4,5-tetramethyloctane	634	1834000	0.0006845	0.432
62183-81-7	2,2,4,6-tetramethyloctane	631.25	1834000	0.0006845	0.432
62183-82-8	2,2,4,7-tetramethyloctane	630.97	1834000	0.0006845	0.432
62183-83-9	2,2,5,5-tetramethyloctane	633.71	1839000	0.0006855	0.403
62183-84-0	2,2,5,6-tetramethyloctane	638.14	1834000	0.0006845	0.432
62183-85-1	4-methyl-5-propyloctane	635.31	1805000	0.0006955	0.519
62183-86-2	2-methyl-4-isopropyloctane	630.72	1817000	0.0006895	0.491
62183-87-3	2-methyl-5-isopropyloctane	632.08	1817000	0.0006895	0.491
62183-88-4	3-methyl-4-isopropyloctane	637.53	1817000	0.0006895	0.491
62183-89-5	3-methyl-5-isopropyloctane	633.44	1817000	0.0006895	0.491
62183-90-8	4-methyl-4-isopropyloctane	645.29	1822000	0.0006905	0.461
62183-91-9	4-methyl-5-isopropyloctane	636.16	1817000	0.0006895	0.491
62183-92-0	3,4-diethyloctane	639.37	1805000	0.0006955	0.519
62183-93-1	3,5-diethyloctane	636.66	1805000	0.0006955	0.519
62183-94-2	3,6-diethyloctane	643.43	1805000	0.0006955	0.519
62183-95-3	2,2-dimethyl-3-ethyloctane	642.55	1822000	0.0006905	0.461
62183-96-4	2,2-dimethyl-4-ethyloctane	630.23	1822000	0.0006905	0.461
62183-97-5	2,2-dimethyl-5-ethyloctane	632.97	1822000	0.0006905	0.461
62183-98-6	2,2-dimethyl-6-ethyloctane	638.44	1822000	0.0006905	0.461
62183-99-7	2,3-dimethyl-3-ethyloctane	650.77	1822000	0.0006905	0.461
62184-00-3	2,3-dimethyl-4-ethyloctane	640.25	1817000	0.0006895	0.491
62184-01-4	2,3-dimethyl-5-ethyloctane	636.16	1817000	0.0006895	0.491
62184-02-5	2,3-dimethyl-6-ethyloctane	642.97	1817000	0.0006895	0.491
62184-03-6	2,4-dimethyl-3-ethyloctane	640.25	1817000	0.0006895	0.491
62184-04-7	2,4-dimethyl-4-ethyloctane	635.7	1822000	0.0006905	0.461
62184-05-8	2,4-dimethyl-5-ethyloctane	634.8	1817000	0.0006895	0.491
62184-06-9	2,4-dimethyl-6-ethyloctane	633.44	1817000	0.0006895	0.491
62184-07-0	2,5-dimethyl-3-ethyloctane	636.16	1817000	0.0006895	0.491
62184-08-1	2,5-dimethyl-4-ethyloctane	633.44	1817000	0.0006895	0.491
62184-09-2	2,5-dimethyl-5-ethyloctane	638.44	1822000	0.0006905	0.461
62184-10-5	2,4,6-trimethylnonane	633.44	1817000	0.0006895	0.491
62184-11-6	2,4,7-trimethylnonane	636.16	1817000	0.0006895	0.491
62184-12-7	2,5,5-trimethylnonane	634.33	1822000	0.0006905	0.461
62184-13-8	2,5,6-trimethylnonane	638.89	1817000	0.0006895	0.491
62184-14-9	2,5,7-trimethylnonane	636.16	1817000	0.0006895	0.491
62184-15-0	2,6,6-trimethylnonane	634.33	1822000	0.0006905	0.461
62184-16-1	2,6,7-trimethylnonane	642.97	1817000	0.0006895	0.491
62184-17-2	2,7,7-trimethylnonane	643.92	1822000	0.0006905	0.461
62184-18-3	3,3,4-trimethylnonane	650.77	1822000	0.0006905	0.461
62184-19-4	3,3,5-trimethylnonane	634.33	1822000	0.0006905	0.461
62184-20-7	3,3,6-trimethylnonane	645.29	1822000	0.0006905	0.461
62184-21-8	3,3,7-trimethylnonane	641.18	1822000	0.0006905	0.461
62184-22-9	3,4,4-trimethylnonane	648.03	1822000	0.0006905	0.461
62184-23-0	3,4,5-trimethylnonane	644.34	1817000	0.0006895	0.491
62184-24-1	3,4,6-trimethylnonane	640.25	1817000	0.0006895	0.491
62184-25-2	3,5,5-trimethylnonane	635.7	1822000	0.0006905	0.461
62184-26-3	3,5,6-trimethylnonane	640.25	1817000	0.0006895	0.491
62184-27-4	3,5,7-trimethylnonane	637.53	1817000	0.0006895	0.491
62184-28-5	3,6,6-trimethylnonane	634.33	1822000	0.0006905	0.461
62184-29-6	4,4,5-trimethylnonane	645.29	1822000	0.0006905	0.461
62184-30-9	4,4,6-trimethylnonane	635.7	1822000	0.0006905	0.461
62184-31-0	4,5,5-trimethylnonane	645.29	1822000	0.0006905	0.461
62184-32-1	4-tert-butyloctane	635.7	1822000	0.0006905	0.461
62184-33-2	2-methyl-4-propyloctane	628.54	1805000	0.0006955	0.519
62184-34-3	2-methyl-5-propyloctane	628.54	1805000	0.0006955	0.519
62184-35-4	3-methyl-4-propyloctane	636.66	1805000	0.0006955	0.519
62184-36-5	3-methyl-5-propyloctane	632.6	1805000	0.0006955	0.519
62184-37-6	2-methyl-4-ethylnonane	638.02	1805000	0.0006955	0.519
62184-38-7	2-methyl-5-ethylnonane	635.31	1805000	0.0006955	0.519
62184-39-8	2-methyl-6-ethylnonane	638.02	1805000	0.0006955	0.519
62184-40-1	2-methyl-7-ethylnonane	643.43	1805000	0.0006955	0.519
62184-41-2	3-methyl-4-ethylnonane	642.08	1805000	0.0006955	0.519
62184-42-3	3-methyl-5-ethylnonane	633.95	1805000	0.0006955	0.519
62184-43-4	3-methyl-6-ethylnonane	639.37	1805000	0.0006955	0.519
62184-44-5	3-methyl-7-ethylnonane	640.72	1805000	0.0006955	0.519
62184-45-6	4-methyl-3-ethylnonane	640.72	1805000	0.0006955	0.519
62184-46-7	4-methyl-5-ethylnonane	638.02	1805000	0.0006955	0.519
62184-47-8	4-methyl-6-ethylnonane	635.31	1805000	0.0006955	0.519
62184-48-9	4-methyl-7-ethylnonane	640.72	1805000	0.0006955	0.519
62184-49-0	5-methyl-3-ethylnonane	639.37	1805000	0.0006955	0.519
62184-50-3	2,2,4-trimethylnonane	635.7	1822000	0.0006905	0.461
62184-51-4	2,2,5-trimethylnonane	635.7	1822000	0.0006905	0.461
62184-52-5	2,2,6-trimethylnonane	634.33	1822000	0.0006905	0.461
62184-53-6	2,2,7-trimethylnonane	641.18	1822000	0.0006905	0.461
62184-54-7	2,2,8-trimethylnonane	641.18	1822000	0.0006905	0.461
62184-55-8	2,3,3-trimethylnonane	650.77	1822000	0.0006905	0.461
62184-56-9	2,3,4-trimethylnonane	644.34	1817000	0.0006895	0.491
62184-57-0	2,3,5-trimethylnonane	638.89	1817000	0.0006895	0.491
62184-58-1	2,3,6-trimethylnonane	641.61	1817000	0.0006895	0.491
62184-59-2	2,3,7-trimethylnonane	645.7	1817000	0.0006895	0.491
62184-60-5	2,3,8-trimethylnonane	644.34	1817000	0.0006895	0.491
62184-61-6	2,4,4-trimethylnonane	634.33	1822000	0.0006905	0.461
62184-62-7	2,4,5-trimethylnonane	637.53	1817000	0.0006895	0.491
62184-67-2	3-ethylthiacyclopentane	671.54	3810000	0.0003585	0.273
62184-71-8	4-isopropylnonane	638.02	1805000	0.0006955	0.519
62184-72-9	5-isopropylnonane	638.02	1805000	0.0006955	0.519
62184-73-0	2-methyl-3-ethylnonane	642.08	1805000	0.0006955	0.519
62184-74-1	1-nonylcyclopentene	707.91	1817000	0.0007465	0.573
62184-75-2	1-decylcyclopentene	718.6	1677000	0.0008025	0.611
62184-76-3	1-undecylcyclopentene	729.7	1552000	0.0008585	0.646
62184-77-4	1-dodecylcyclopentene	739.92	1441000	0.0009145	0.678
62184-78-5	1-tridecylcyclopentene	749.34	1342000	0.0009705	0.706
62184-79-6	1-tetradecylcyclopentene	757.98	1252000	0.0010265	0.73
62184-80-9	1-pentadecylcyclopentene	767.17	1171000	0.0010825	0.748
62184-81-0	1-hexadecylcyclopentene	775.66	1098000	0.0011385	0.76
62184-82-1	1,3-dimethylcyclopentene	558.34	3432000	0.0003535	0.245
62184-83-2	1,5,5-trimethylcyclopentene	602.71	3192000	0.0004105	0.315
62184-89-8	2,2-dimethyl-4,4-diethylhexane	655.89	1839000	0.0006855	0.403
62184-90-1	2,3-dimethyl-3,4-diethylhexane	657.43	1834000	0.0006845	0.432
62184-91-2	2,3-dimethyl-4,4-diethylhexane	657.43	1834000	0.0006845	0.432
62184-92-3	2,4-dimethyl-3,3-diethylhexane	651.92	1834000	0.0006845	0.432
62184-93-4	2,4-dimethyl-3,4-diethylhexane	651.92	1834000	0.0006845	0.432
62184-94-5	2,5-dimethyl-3,3-diethylhexane	638.14	1834000	0.0006845	0.432
62184-95-6	2,5-dimethyl-3,4-diethylhexane	634.39	1829000	0.0006835	0.462
62184-96-7	3,3-dimethyl-4,4-diethylhexane	669.75	1839000	0.0006855	0.403
62184-97-8	3,4-dimethyl-3,4-diethylhexane	669.75	1839000	0.0006855	0.403
62184-98-9	2,2,3,3-tetramethyl-4-ethylhexane	661.46	1852000	0.0006795	0.375
62184-99-0	2,2,3,4-tetramethyl-3-ethylhexane	665.64	1852000	0.0006795	0.375
62185-00-6	2,2,3,4-tetramethyl-4-ethylhexane	671.22	1852000	0.0006795	0.375
62185-01-7	2,2,3,5-tetramethyl-3-ethylhexane	651.69	1852000	0.0006795	0.375
62185-02-8	2,2,3,5-tetramethyl-4-ethylhexane	643.47	1847000	0.0006785	0.404
62185-03-9	2,2,4,4-tetramethyl-3-ethylhexane	660.06	1852000	0.0006795	0.375
62185-04-0	2,2,4,5-tetramethyl-3-ethylhexane	642.08	1847000	0.0006785	0.404
62185-05-1	2,2,4,5-tetramethyl-4-ethylhexane	655.88	1852000	0.0006795	0.375