CASRN	Chemical	Tc	Pc	Vc	omega
2436-93-3	6,8-dimethylquinoline	775.1	3363000	0.0005145	0.497
2437-25-4	dodecanenitrile	720.09	1743000	0.0007335	0.72
2437-56-1	1-tridecene	675	1770000	0.000756	0.606
2437-95-8	(±)-a-pinene	647	2780000	0.0005053	0.341
2438-20-2	2-methylbutyl propanoate	609	2550000	0.000497	0.572
2439-54-5	methyloctylamine	630.6	2370000	0.000565	0.586
2439-55-6	methyloctadecylamine	764.5	1080000	0.001115	0.898
24395-10-6	6-hepteN-2-ol	601	3500000	0.000341	
2442-10-6	1-octeN-3-yl acetate	650	2350000	0.0005402	
2442-49-1	methyl tetracosanoate	830	960000	0.0013551	
24422-20-6	germane, trichlorofluoro	473.51	3762000	0.00027416	
24422-21-7	germane, dichlorodifluoro	413.69	3797000	0.00023732	
2443-03-0	1-methyl-trans-3-propylcyclopentane	614.2	2671000	0.0004795	0.334
2443-04-1	1-methyl-cis3-propylcyclopentane	614.2	2671000	0.0004795	0.334
2443-89-2	1,1-diiodo-2,2-dimethylpropane	759.04	3400000	0.0004745	0.242
2443-91-6	1,1-dibromo-2,2-dimethylpropane	665.55	4152000	0.0004335	0.48
24443-15-0	1,3-dibromo-3-methylbutane	661.07	4211000	0.0004285	0.414
24448-19-9	3-ethyl-2-hexanol	595.91	2835000	0.0004905	0.773
2445-76-3	hexyl propanoate	640	2120000	0.000577	0.488
2451-00-5	1-methyl-7-ethylnaphthalene	767.96	2713000	0.0005775	0.493
2452-99-5	1,2-dimethylcyclopentane	556.47	3437000	0.0003641	0.271
2453-00-1	1,3-dimethylcyclopentane	556.47	3437000	0.0003641	0.271
24544-04-5	2,6-diisopropylaniline	710	2500000	0.0006269	
24549-06-2	2-ethyl-6-methylaniline	705.58	3284000	0.000482	0.413
24556-56-7	2-iodo-3,3-dimethylbutane	608.43	3704000	0.0003735	0.635
2456-27-1	dinonyl ether	736	1300000	0.00102	1.002
2456-28-2	didecyl ether	730.8	1005000	0.0011735	0.795
24567-53-1	phosphonium chloride	322.3	7370000	0.00014942	
24580-48-1	2-methyl-1-propylcyclohexanol	665	3090000	0.0005298	
24580-52-7	3-methyl-1-propylcyclohexanol	665	3090000	0.0005298	
24597-12-4	gallium (II) chloride	1216.16			
24608-84-2	5-methyl-cis2-heptene	569.31	2696000	0.0004575	0.347
24608-85-3	5-methyl-trans-2-heptene	569.31	2696000	0.0004575	0.347
24612-75-7	1,1,3,4-tetramethylcyclohexane	667	2570000	0.000534	0.274
2462-94-4	11-eicosenoic acid	966	1400000	0.0011947	
24621-61-2	(S)-(+)-1,3-butanediol	630.99	5032000	0.0002899	1.127
2463-53-8	2-nonenal	650	2600000	0.0004801	
2467-10-9	1,1,1,5-tetrachloropentane	725	3200000	0.0004907	
2469-45-6	dodecyl sulfide	876.33	890000	0.001414	
2470-68-0	diheptylamine	706.4	1650000	0.000842	0.761
2473-01-0	1-chlorononane	661.88	2227000	0.0005885	0.505
2473-03-2	1-chloroundecane	696.43	1872000	0.0007005	0.588
24734-68-7	benzenepropanethiol	740	3500000	0.0004719	
24765-57-9	2,2-dibutyl-1,3-propanediol	728.85	2303000	0.000685	1.323
24768-42-1	5-thiadecane	681.56	2345000	0.0005935	0.508
24768-43-2	4-thiadecane	681.56	2345000	0.0005935	0.508
24768-44-3	3-thiadecane	681.56	2345000	0.0005935	0.508
24768-46-5	4-thiaundecane	701.03	2141000	0.0006495	0.551
24772-63-2	1,8-diiodooctane	799.06	2446000	0.0006535	0.465
24774-58-1	2,5-dibromohexane	684.21	3682000	0.0004895	0.526
24800-44-0	tripropylene glycol	677	2540000	0.000596	1.257
2487-90-3	trimethoxysilane	525	2890000	0.000408	0.322
24892-49-7	2,4-dimethyl-2,4-pentanediol	621.29	3594000	0.0004435	1.069
24893-35-4	2,3-dimethyl-1,3-butanediol	636.35	3991000	0.0003925	1.105
24910-63-2	3,4-dimethylpent-2-ene	537.61	2969000	0.000403	0.294
2492-22-0	cis-2,6-dimethyl-2,6-octadiene	646	3000000	0.0004577	
24948-66-1	1-deceN-4-yne	615	2700000	0.000486	
24949-35-7	1,3-bis(methylsulfanyl)propane	657.5	3310000	0.0004188	0.358
24965-84-2	2-methylcyclohexanone, (±)	650	3550000	0.0003776	
24965-87-5	(S)-3-methylcyclohexanone	650	3550000	0.0003776	
2497-18-9	trans-2-hexenyl acetate	616	2600000	0.0004705	
2497-21-4	4-hexeN-3-one	595	3960000	0.0003428	
2499-58-3	heptyl acrylate	650	2350000	0.0005402	
2499-59-4	N-octyl acrylate	672	2250000	0.0005784	
2499-95-8	hexyl acrylate	628	2450000	0.0005048	
25013-15-4	methylstyrene	658.75	3370000	0.000417	0.334
25044-01-3	2-methyl-1-penteN-3-one	595	3960000	0.0003428	
2508-29-4	5-amino-1-pentanol	626.41	3790000	0.000368	0.841
25103-58-6	tert-dodecylmercaptan	691	1860000	0.000771	0.61
25118-28-9	1,4-dibromohexane	684.21	3682000	0.0004895	0.526
25148-87-2	1,3-dichloro-2-methyl-2-butene	660	3500000	0.000376	
25154-52-3	nonylphenol	770	2070000	0.000757	0.88
25155-15-1	cymene	664.65	2897000	0.0004872	0.378
25167-70-8	2,4,4-trimethylpentene	564.74	2694000	0.0004588	0.328
2517-43-3	3-methoxy-1-butanol	582	3670000	0.0003501	0.783
25186-47-4	3,5-dichlorotoluene	710	3620000	0.000404	0.343
2523-55-9	trans-4-methylcyclohexylamine	622	3490000	0.000393	0.386
2523-56-0	cis-4-methylcyclohexylamine	622	3490000	0.000393	0.386
2524-02-9	phosphorus (V) sulfide chloride difluoride	439.2	4140000	0.00023005	
25265-71-8	dipropylene glycol	654	3580000	0.000415	1.198
25276-70-4	1-pentadecanethiol	764.77	1486000	0.0009295	0.737
2532-58-3	cis-1,3-dimethylcyclopentane	551	3445000	0.00036	0.274
2532-64-1	1,cis-2,trans-3,trans-4-tetramethylcyclopentane	602.95	2498000	0.0004775	0.284
2532-65-2	1,cis-2,cis-3,cis-4-tetramethylcyclopentane	613.22	2498000	0.0004775	0.284
2532-67-4	1,trans-2,cis-3,trans-4-tetramethylcyclopentane	587.41	2498000	0.0004775	0.284
2532-68-5	1,cis-2,trans-3,cis-4-tetramethylcyclopentane	592.68	2498000	0.0004775	0.284
2532-69-6	1,cis-2,cis-3,trans-4-tetramethylcyclopentane	602.95	2498000	0.0004775	0.284
25321-09-9	diisopropylbenzene	697.15	2361000	0.000602	0.437
25323-30-2	dichloroethylene	505.67	5190000	0.000224	0.267
25339-09-7	isocetyl stearate	890	650000	0.0020674	
25339-17-7	isodecanol	644	2280000	0.000591	0.913
25339-56-4	3-heptene (mixed isomers)	537.61	2969000	0.000403	0.294
25340-17-4	diethylbenzene	664.65	2897000	0.0004872	0.378
25340-18-5	triethylbenzene; (mixed isomers)	697.15	2361000	0.000602	0.437
25346-31-0	3-bromo-3-methylpentane	595.92	3436000	0.0004225	0.341
25346-32-1	2-chloro-4-methylpentane	572.99	3036000	0.0004085	0.314
25346-33-2	1-bromo-2-methylpentane	612.15	3392000	0.0004275	0.404
25354-97-6	2-hexyldecanoic acid	776	1510000	0.000917	1.083
25354-98-7	2-methyl-1-pentadecanol	757.6	1500000	0.00092	0.756
25360-10-5	tert-nonyl mercaptan, isomers	659	2340000	0.00058	0.451
25415-67-2	ethyl 4-methylpentanoate	602	2610000	0.000494	0.395
25415-70-7	isobutyl 4-methylpentanoate	637	2200000	0.0006	0.579
25419-06-1	methylpentylamine	561	3160000	0.0004	0.473
25419-36-7	1,2,3,4-tetrahydro-2,8-dimethylnaphthalene	737.62	2773000	0.0005485	0.424
25419-37-8	1,2,3,4-tetrahydro-2,5-dimethylnaphthalene	737.62	2773000	0.0005485	0.424
25430-48-2	1,4-tetradecanediol	790.69	1780000	0.0008515	1.293
2547-26-4	4a-methyl-cisdecahydronaphthalene	711.69	2638000	0.0005325	0.331
2547-27-5	4a-methyl-trans-decahydronaphthalene	697.11	2638000	0.0005325	0.331
2548-87-0	trans-2-octenal	630	3000000	0.000405	
25498-49-1	(2-(2-methoxy methyl ethoxy)methyl ethoxy)propanol	657	2180000	0.000652	1.125
2550-21-2	3-methyl-2-hexanone	593.86	3022000	0.0004275	0.451
2550-22-3	3-methyl-5-hexeN-2-one	615	3560000	0.0003913	
2551-62-4	sulfur hexafluoride	318.69	3760000	0.00019852	0.2151
2552-91-2	(1S)-(+)-neomenthyl acetate	694	2150000	0.0006198	
25551-13-7	trimethyl benzene	643.63	3130000	0.0004456	0.346
25570-03-0	(S)-(+)-2-methylbutyronitrile	586.97	3376000	0.0003331	0.386
25586-43-0	monochloronaphthalene	785	3400000	0.000434	0.383
25607-16-3	1-methyl-2-ethylnaphthalene	775.02	2713000	0.0005775	0.493
25620-58-0	2,2,4(2,4,4)-trimethyl-1,6-hexanediamine	741	2850000	0.0005974	
25639-42-3	methylcyclohexanol	635	3790000	0.000414	0.685
2565-39-1	6-hepteN-3-one	615	3560000	0.0003913	
25659-22-7	4-hexeN-2-one	595	3960000	0.0003428	
2568-33-4	3-methyl-1,3-butanediol	632.01	4596000	0.0003275	1.103
2570-26-5	pentadecylamine	746.5	1390000	0.000895	0.787
25735-67-5	4-sec-amylphenol	751	2980000	0.000546	0.569
25756-29-0	N-methyl-N-(cyclohexylmethyl) amine	642	3100000	0.0004487	
25790-55-0	4-chloro-1,2-butadiene	525	4260000	0.000273	0.193
2586-89-2	3-heptyne	574.59	3341000	0.0003895	0.279
25961-87-9	2-(2-(heptyloxy)ethoxy)ethanol	690	2100000	0.0007118	
260-94-6	acridine	905	3640000	0.000543	0.438
26118-38-7	3,3-dimethyl-2-hexanone	624	2640000	0.000469	0.528
2612-27-3	2-isopropyl-1,3-propanediol	652.71	3936000	0.0003975	1.179
2612-28-4	2-propyl-1,3-propanediol	620.04	3897000	0.0004035	1.214
2612-29-5	2-ethyl-1,3-propanediol	630.78	4340000	0.0003565	1.142
2613-61-8	2,4,6-trimethylheptane	590.3	2148000	0.00056	0.411
2613-65-2	1-methyl-trans-3-ethylcyclopentane	586.99	2957000	0.0004235	0.29
2613-66-3	1-methyl-cis3-ethylcyclopentane	586.99	2957000	0.0004235	0.29
2613-69-6	1,cis-2,cis-3-trimethylcyclopentane	591.57	2854000	0.0004225	0.265
2613-72-1	1,cis-2,cis-4-trimethylcyclopentane	582.61	2854000	0.0004225	0.265
26143-08-8	trans-1-iodo-1-nonene	708.62	2375000	0.0006075	0.463
26153-88-8	dimethylpentylamine	584.2	2810000	0.000455	0.298
26153-91-3	methyl-2,2-dimethylpropylamine	564.84	3221000	0.0003955	0.369
26158-99-6	3-thiaoctane	638.37	2851000	0.0004815	0.42
26171-83-5	1,2-butanediol, (±)	630.99	5032000	0.0002899	1.127
26184-62-3	(S)-(+)-2-pentanol	562.34	3890000	0.0003269	0.577
26185-81-9	1-octatriacontyne	1003.17	449000	0.0021255	
26185-82-0	1-nonatriacontyne	1021.18	432000	0.0021815	
26185-83-1	1-tetratriacontyne	936.74	532000	0.0019015	
26186-00-5	1-heptadecyne	736.21	1370000	0.0009495	0.69
26186-01-6	1-nonadecyne	758.94	1194000	0.0010615	0.735
26186-02-7	1-tridecyne	684.11	1861000	0.0007255	0.553
26186-03-8	1-heptatriacontyne	985.15	468000	0.0020695	
26190-82-9	2,5-dimethylquinoline	775.1	3363000	0.0005145	0.497
26198-63-0	1,2-dichloropropane, (±)	568.62	4184000	0.0002909	0.249
2623-50-9	5,8-dimethylquinoline	775.1	3363000	0.0005145	0.497
26249-12-7	dibromobenzene	761	4660000	0.000372	0.293
2625-29-8	1-nitro-2,2-dimethylbutane	638.11	3217000	0.0004425	0.458
2625-35-6	2-nitro-3-methylbutane	614	3200000	0.000385	0.441
26266-68-2	2-ethyl hexenal	630	3000000	0.000405	
2628-17-3	4-vinylphenol	736	4520000	0.000374	0.509
26288-16-4	1,1,1-trifluorodecane	600.1	1900000	0.000632	0.533
26303-90-2	4-decenoic acid	776	2300000	0.0006036	
26311-33-1	ethyl 2-methyl-2-hexenoate	628	2450000	0.0005048	
26356-06-9	2-bromo-3,3-dimethylbutane	609.3	3468000	0.0004165	0.311
2639-63-6	hexyl butanoate	657.2	1900000	0.000635	0.474
2639-64-7	nonyl butanoate	706.7	1500000	0.000809	0.57
26401-20-7	tert-hexyl alcohol	581.8	3461000	0.0003774	0.582
26401-74-1	2-sec-amylphenol	751	2980000	0.000546	0.569
26423-60-9	3-chloro-cis2-pentene	553.1	3552000	0.0003455	0.271
26423-61-0	3-chloro-trans-2-pentene	553.1	3552000	0.0003455	0.271
26423-63-2	4-chloro-cis2-pentene	564.66	3564000	0.0003385	0.267
26437-45-6	2-nonyl-[ 1,2,3,4-tetrahydronaphthalene]	809.34	1513000	0.0009405	0.702
26438-24-4	2-heptyl-[1,2,3,4-tetrahydronaphthalene]	793.72	1767000	0.0008285	0.633
26438-26-6	1-nonylnaphthalene	849	1680000	0.001	0.617
26438-27-7	1-decylnaphthalene	859	1580000	0.00107	0.642
26438-28-8	1-dodecylnaphthalene	854.65	1304000	0.0010815	0.807
26444-18-8	a,2-dimethylstyrene	675.92	2974000	0.0004799	0.378
26472-00-4	methylcyclopentadiene dimer	675	2640000	0.000541	0.423
26489-01-0	citronellol, (±)	656.59	2236000	0.0006015	0.612
26490-07-3	2-isobutylnaphthalene	818.49	2518000	0.0006275	0.508
26519-91-5	methylcyclopentadiene	541	4430000	0.000279	0.238
26533-31-3	2-methyl-4-nonanol	634.39	2334000	0.0006025	0.852
26533-33-5	2-methyl-3-nonanol	633.8	2334000	0.0006025	0.852
26533-34-6	2-methyl-3-octanol	609.21	2566000	0.0005465	0.814
26533-35-7	3-methyl-4-octanol	603.88	2566000	0.0005465	0.814
26533-36-8	2-nonadecanol	782.8	1220000	0.001098	0.872
26549-24-6	2-hexanol, (R)	581.8	3461000	0.0003774	0.582
26549-25-7	3-heptanol, (S)	587.2	3151000	0.0004341	0.709
2655-27-8	N-pentylaniline	700	2750000	0.0005661	
26550-55-0	(S)-(+)-1-methoxy-2-propanol	569	4240000	0.0002973	0.759
26638-19-7	dichloropropane	568.62	4184000	0.0002909	0.249
26718-82-1	heneicosylcyclohexane	864.14	769000	0.0014805	
26730-14-3	7-methyltridecane	682.75	1553000	0.0008156	0.61
26761-40-0	diisodecyl phthalate	908	1000000	0.00173	1.14
26761-81-9	mixo-dichlorobutane	598.51	3616000	0.0003479	0.288
2679-87-0	ethyl sec-butyl ether	520.72	3076000	0.0003835	0.359
26817-31-2	1-nitrotridecane	751.18	1661000	0.0008455	0.826
26825-83-2	1-iodoheptadecane	796.86	1346000	0.0010065	1.036
26886-05-5	3,5-bis(1-methylethyl)phenol	755.67	2747000	0.0005987	0.59
26896-20-8	2,5-dimethyl-2-ethylhexanoic acid	713	2250000	0.0006	0.877
2690-08-6	9-thiaheptadecane	760	1460000	0.00094	0.88
2695-47-8	6-bromo-1-hexene	609.39	3573000	0.0004135	0.402
26952-21-6	isooctanol	600.92	2849000	0.000488	0.733
26952-23-8	dichloropropene	577	4380000	0.000277	0.206
2696-84-6	4-propylaniline	673	3000000	0.0004694	
2696-92-6	nitrosyl chloride	440.65	9120000	0.000139	0.3005
26963-33-7	2-isopentylthiophene	685	2900000	0.0004981	
26981-81-7	diethylheptylamine	634.32	2000000	0.0006895	0.609
26981-98-6	7-methyl-4-nonanol	634.39	2334000	0.0006025	0.852
2699-79-8	sulfuryl fluoride	336.28	4639000	0.00015789	
2717-39-7	1,4,5,8-tetramethylnaphthalene	810.54	2389000	0.0006335	0.535
2717-42-2	1,2,4-trimethylnaphthalene	782.54	2671000	0.0005775	0.492
2719-52-0	2-phenylpentane	663.62	2671000	0.0005375	0.413
27193-28-8	tert-octylphenol	765	2280000	0.000704	0.631
27193-86-8	dodecylphenols	770	1700000	0.0008549	
27196-00-5	tetradecanol; mixed isomers	736.2	1715000	0.0008125	0.686
2721-38-2	1,1-diethylcyclopentane	624.67	2900000	0.0004785	0.321
2724-59-6	17-methyloctadecanoic acid	810	1300000	0.00108	1.07
2726-21-8	DL-2,3-diphenylbutane	778.3	2200000	0.000777	0.452
27370-94-1	cis-1-iodo-1-nonene	708.62	2375000	0.0006075	0.463
2738-18-3	2,6-dimethyl-3-heptene	593.62	2372000	0.0005248	0.411
2738-19-4	2-methyl-2-hexene	546.77	2976000	0.0004085	0.307
27424-87-9	1-methyl-4-ethylnaphthalene	772.19	2713000	0.0005775	0.493
2747-53-7	3-methyl-3-penteN-1-ol	587	3900000	0.0003038	
2749-11-3	s(+)-2-amino-1-propanol	631	5463000	0.0002697	0.737
275-51-4	azulene	773.48	3897000	0.0004095	0.355
27519-02-4	cis-9-tricosene	802.72	873000	0.0013045	0.742
27522-11-8	2-ethyl-1-pentanol	598.5	3121000	0.0004405	0.764
27554-26-3	diisooctyl phthalate	851	1180000	0.00142	1.088
27563-68-4	2-thiaoctadecane	798.63	1246000	0.0010415	0.774
2757-28-0	triisooctylamine	819.04	820000	0.0014149	0.737
27574-98-7	2,3,4,5,6-pentamethylheptane	645.08	1842000	0.0006775	0.434
2761-84-4	5-dodecenoic acid	816	2000000	0.0007232	
27610-92-0	2-butyloctanoic acid	734	1940000	0.000705	0.967
27644-49-1	3-methyl-2-octanol	605.01	2566000	0.0005465	0.814
2765-11-9	pentadecanal	728.48	1498000	0.0008925	0.811
2765-18-6	1-propylnaphthalene	782	2970000	0.00052	0.455
27656-50-4	trans-2,2,4,6,6-pentamethyl-3-heptene	656.77	1872000	0.0006948	0.548
2768-16-3	5-methyl-1-nonanol	638.09	2316000	0.0006085	0.883
2768-18-5	5,5-dimethyl-1-hexanol	617.99	2844000	0.0004915	0.738
2769-64-4	butyl isocyanide	579.93	3368000	0.0003415	0.428
27712-54-5	trisilazane	518.2	3165000	0.00037291	0.05
27802-85-3	3,4,7-trimethylnonane	644.34	1817000	0.0006895	0.491
27831-13-6	4-ethenyl-1,2-dimethylbenzene	679.34	2970000	0.0004685	0.375
2787-43-1	3-methyl-1,trans-3-pentadiene	536.73	3481000	0.0003335	0.241
2787-45-3	3-methyl-1,cis-3-pentadiene	536.73	3481000	0.0003335	0.241
27911-72-4	tritetradecylamine	1054.03	368000	0.0024255	
2799-16-8	(R)-(-)-1-amino-2-propanol	631	5463000	0.0002697	0.737
2799-17-9	(S)-(+)-1-amino-2-propanol	631	5463000	0.0002697	0.737
280-57-9	triethylenediamine	655	3910000	0.000382	0.46
2801-84-5	2,4-dimethyldecane	640.72	1805000	0.0006955	0.519
28028-91-3	cis-1-fluoro-1-heptene	525.96	2820000	0.0004255	0.385
28028-92-4	trans-1-fluoro-1-heptene	525.96	2820000	0.0004255	0.385
28054-58-2	silane, bromodichlorofluoro	497.17	3827000	0.00029593	0.106
28054-61-7	silane, dibromochlorofluoro	535.27	3932000	0.00031014	0.118
2807-30-9	ethylene glycol monopropyl ether	615.2	3651000	0.000347	0.486
2808-71-1	3-ethylcyclohexene	609.58	3284000	0.0004025	0.285
2808-76-6	1,3-dimethylcyclohexene	604.64	3163000	0.0004015	0.26
2808-77-7	1,5-dimethylcyclohexene	606	3163000	0.0004015	0.26
2808-79-9	1,4-dimethylcyclohexene	606	3163000	0.0004015	0.26
2809-64-5	1,2,3,4-tetrahydro-5-methylnaphthalene	721.7	3076000	0.0004925	0.379
2809-67-8	2-octyne	607.45	2999000	0.0004455	0.324
281-23-2	tricyclo[3.3.1.13,7]decane	703	2920000	0.000485	0.185
28122-24-9	3-ethyldiphenylmethane	786.18	2473000	0.0006595	0.522
28122-25-0	2-ethyldiphenylmethane	785.23	2473000	0.0006595	0.522
28122-27-2	3',5'-dimethyldiphenylmethane	788.71	2436000	0.0006595	0.521
28122-28-3	2',4'-dimethyldiphenylmethane	791.49	2436000	0.0006595	0.521
28122-29-4	2',2"-dimethyldiphenylmethane	792.88	2436000	0.0006595	0.521
28123-70-8	5-chlorononane	661.88	2227000	0.0005885	0.505
28148-04-1	1,3-dibromo-2-methylpropane	672.32	4717000	0.0003775	0.435
2816-57-1	2,6-dimethylcyclohexanone	670	3250000	0.0004217	
2819-86-5	pentamethylphenol	751	2980000	0.000546	0.569
2825-79-8	trans-2-octadecenoic acid	936	1500000	0.0010856	
28267-29-0	ethyl tridecanoate	708	1580000	0.0008347	
28292-42-4	3-aminoheptane	565.35	2919000	0.0004593	0.409
28292-43-5	5-methyl-2-hexylamine	565.35	2919000	0.0004593	0.409
28303-42-6	dodecyl formate	713.2	1600000	0.000807	0.798
28320-88-9	3-chloro-3-methyloctane	661.88	2227000	0.0005885	0.505
28320-89-0	3-chloro-3-ethylheptane	661.88	2227000	0.0005885	0.505
28332-44-7	5-methyl-4-hexeN-2-one	615	3560000	0.0003913	
28347-13-9	xylene chloride	735	3300000	0.000446	
2835-39-4	isovaleric acid, allyl ester	736	2700000	0.0004944	
2837-89-0	2-chloro-1,1,1,2-tetrafluoroethane	395.65	3660000	0.0002438	0.288
28467-75-6	2-tridecyne	701.82	1881000	0.0007255	0.539
2847-72-5	4-methyldecane	629.99	1948000	0.0006455	0.507
2851-83-4	3-thiapentadecane	762.23	1544000	0.0008735	0.7
28519-06-4	decyl chloride (mixed isomers)	679.88	2038000	0.0006445	0.547
2854-16-2	1-amino-2-methyl-2-propanol	571.82	4140000	0.0003	0.711
2855-08-5	1-chloro-3,3-dimethylbutane	583.68	3046000	0.0004095	0.283
28553-12-0	diisononyl phthalate	835	1080000	0.00137	1.031
28623-46-3	nonadecanenitrile	801.62	1063000	0.0011255	0.839
28652-72-4	methylbiphenyl	790.07	3520000	0.000538	0.425
2867-59-6	3-amino-1-butanol	571.82	4140000	0.0003	0.711
2869-34-3	tridecylamine	721.7	1640000	0.000785	0.706
287-23-0	cyclobutane	459.93	4980000	0.00021	0.185
287-27-4	thiacyclobutane	602	5860000	0.000218	0.173
287-92-3	cyclopentane	511.7	4510000	0.00026	0.195
2870-04-4	2-ethyl-m-xylene	671	3020000	0.000482	0.407
2874-74-0	2-methyldodecanoic acid	746.59	1770000	0.0007875	0.937
2876-35-9	2-tert-butylnaphthalene	783.88	2546000	0.0006225	0.445
2876-44-0	2-octylnaphthalene	825.21	1758000	0.0008575	0.699
2876-45-1	2-heptylnaphthalene	814.1	1909000	0.0008015	0.662
2876-46-2	2-hexylnaphthalene	803.49	2079000	0.0007455	0.623
2876-51-9	1-octylnaphthalene	821.26	1758000	0.0008575	0.699
2876-52-0	1-heptylnaphthalene	811.44	1909000	0.0008015	0.662
2876-53-1	1-hexylnaphthalene	813	2250000	0.000741	0.587
288-13-1	1H-pyrazole	734	6600000	0.000235	0.287
288-14-2	isoxazole	590	6100000	0.0001909	0.257
288-42-6	oxazole	554	6320000	0.000237	0.231
28804-88-8	dimethylnaphthalene, isomers	776.35	3052000	0.0005208	0.424
2882-96-4	3-methylpentadecane	713.56	1326000	0.0009692	0.683
2882-97-5	2,3-dimethylpentadecane	729.97	1245000	0.0010289	0.685
2882-98-6	nonylcyclopentane	716.95	1762000	0.0007605	0.566
28823-41-8	2-methyl-2,4-hexadiene	556	3450000	0.0003478	
2883-02-5	nonylcyclohexane	737.79	1662000	0.0008085	0.577
2883-08-1	1,3-dicyclohexyl-2-methylpropane	768.14	1820000	0.0007975	0.512
2884-06-2	2,3-dimethylnonane	631.11	1961000	0.0006395	0.478
2885-00-9	1-octadecanethiol	795.36	1204000	0.0010975	0.798
289-80-5	pyridazine	774	5490000	0.000274	0.204
289-95-2	pyrimidine	638	5490000	0.000274	0.211
28947-77-5	trihexadecylamine	1133.51	346000	0.0026306	
28950-34-7	sulfur (III) nitiride	665.98	4132000	0.00035107	
290-37-9	pyrazine	626	5490000	0.000274	0.203
29022-31-9	3,3-dimethyl-4-nonyne	660.54	2229000	0.0006135	0.46
29044-06-2	2-methyl-2,5-hexanediol	677.27	3547000	0.0004485	1.141
29063-28-3	octyl alcohol; mixed isomers	600.92	2849000	0.000488	0.733