CASRN	Chemical	Tc	Pc	Vc	omega
1559-35-9	2-(2-ethylhexyloxy)ethanol	646	2230000	0.000611	0.983
1559-81-5	1-methyl-[1,2,3,4-tetrahydronaphthalene]	722.13	3076000	0.0004925	0.379
15594-90-8	1-henicosanol	801.6	1140000	0.0011737	
15597-63-4	phosphorus (III) dichloride fluoride	463	4960000	0.000208	
156-43-4	p-phenetidine	754	3570000	0.000446	0.553
156-59-2	cis-1,2-dichloroethylene	544	5190000	0.000224	0.135
156-60-5	trans-1,2-dichloroethylene	516.5	5510000	0.000224	0.223
156-87-6	3-amino-1-propanol	649	5500000	0.000245	0.827
1560-06-1	2-butenylbenzene	682.45	3088000	0.0004673	0.356
1560-09-4	cis-(1-butenyl)benzene	678.55	3104000	0.0004675	0.366
1560-86-7	2-methylnonadecane	763.21	1021000	0.001208	0.748
1560-88-9	2-methyloctadecane	751.64	1086000	0.0011483	0.741
1560-89-0	2-methylheptadecane	739.33	1159000	0.0010886	0.727
1560-92-5	2-methylhexadecane	726.23	1238000	0.0010289	0.708
1560-93-6	2-methylpentadecane	713.05	1326000	0.0009692	0.683
1560-95-8	2-methyltetradecane	698.98	1424000	0.0008695	0.654
1560-96-9	2-methyltridecane	684.08	1533000	0.0008135	0.622
1560-97-0	2-methyldodecane	668.02	1655000	0.0007575	0.586
15607-89-3	sulfur bromide pentafluoride	427.96	4301000	0.00021676	
1561-10-0	ethyl 4-methylhexanoate	629	2330000	0.000547	0.596
1565-80-6	(S)-(-)-2-methyl-1-butanol	562.34	3890000	0.0003269	0.577
1565-81-7	3-decanol	632.85	2316000	0.0006085	0.883
1567-14-2	methyl trans-2-methyl-2-pentenoate	592.33	2830000	0.000428	0.432
15672-88-5	1-iodo-3,3-dimethylbutane	607.49	3655000	0.0003785	0.705
15673-00-4	1-amino-3,3-dimethylbutane	598.02	3388000	0.0003895	0.387
15679-01-3	1,cis-2-dimethylcyclobutane	525.83	3577000	0.0003195	0.231
15679-02-4	1,trans-2-dimethylcyclobutane	513.5	3577000	0.0003195	0.231
15687-27-1	ibuprofen	777	2330000	0.00066	0.823
1569-01-3	1-propoxy-2-propanol	573	3300000	0.0004	0.8
1569-02-4	1-ethoxy-2-propanol	582	3670000	0.0003501	0.783
1569-43-3	3,5-dimethyl-4-hexeN-3-ol	615	3100000	0.0003875	
1569-44-4	3-methyl-5-hexeN-3-ol	601	3500000	0.000341	
1569-50-2	3-penteN-2-ol	573	4550000	0.0002584	
1569-59-1	3-methyl-4-penteN-2-ol	587	3900000	0.0003038	
1569-60-4	6-methyl-5-hepteN-2-ol	615	3100000	0.0003875	
1569-69-3	cyclohexanethiol	664	3970000	0.000355	0.264
157-40-4	spiropentane	499.74	5213000	0.0002365	0.221
15706-73-7	butyl sec-pentanoate	614.21	2308000	0.0005096	0.771
15726-15-5	3-methyl-4-heptanone	624	2640000	0.000469	0.528
1573-28-0	3,6-dimethyl-3-heptanol	605.89	2595000	0.0005415	0.748
1574-32-9	N-tetranonacontane	1204.95	175000	0.0056258	
1574-33-0	3-methyl-3-penteN-1-yne	525	4000000	0.0002843	
1574-40-9	cis-3-penteN-1-yne	505	4393000	0.0002533	0.189
1574-41-0	cis-1,3-pentadiene	499	3740000	0.000276	0.147
1575-74-2	2-methyl-4-pentenoic acid	696	3300000	0.0003894	
1576-85-8	4-pentenyl acetate	592.33	2830000	0.000428	0.432
1576-87-0	trans-2-pentenal	570	4100000	0.0002715	
1576-95-0	cis-2-penteN-1-ol	573	4550000	0.0002584	
1576-96-1	trans-2-penteN-1-ol	573	4550000	0.0002584	
1577-18-0	trans-3-hexenoic acid	696	3300000	0.0003894	
1577-22-6	5-hexenoic acid	696	3300000	0.0003894	
15790-88-2	methyl trans-2-pentenoate	569	3250000	0.000376	0.434
15833-75-7	3,3-dimethyltetrahydrofuran	573.9	4016000	0.0003315	0.269
15840-60-5	2-methyl-cis3-hexene	533.58	2986000	0.0004015	0.302
1585-17-7	2,4-bis(chloromethyl)-1,3,5-trimethylbenzene	810	2500000	0.0006434	
15869-80-4	3-ethylheptane	590	2390000	0.000528	0.408
15869-85-9	5-methylnonane	610	2160000	0.000583	0.456
15869-86-0	4-ethyloctane	609.6	2178000	0.000552	0.443
15869-87-1	2,2-dimethyloctane	602	2160000	0.000574	0.429
15869-89-3	2,5-dimethyloctane	603	2170000	0.000575	0.44
15869-92-8	3,4-dimethyloctane	614	2239000	0.000551	0.417
15869-93-9	3,5-dimethyloctane	606.3	2189000	0.000555	0.424
15869-94-0	3,6-dimethyloctane	608.3	2189000	0.000562	0.424
15869-95-1	4,4-dimethyloctane	606.9	2209000	0.000548	0.402
15869-96-2	4,5-dimethyloctane	612.2	2239000	0.000546	0.418
1587-04-8	1-methyl-2-allylbenzene	682.45	3088000	0.0004673	0.356
1587-26-4	cis-2,3-dichloro-2-butene	640	3798000	0.000332	0.302
1587-29-7	trans-2,3-dichloro-2-butene	640	3798000	0.000332	0.302
15870-10-7	2-methyl-1-heptene	567	2600000	0.000453	0.355
15874-03-0	6,11-dipentylhexadecane	839.06	725000	0.0015662	
15877-57-3	3-methylpentanal	576.34	3412000	0.0003825	0.433
1588-44-9	5-hexenylbenzene	723	2550000	0.0005863	
1589-47-5	2-methoxy-1-propanol	566	4340000	0.000294	0.719
1589-49-7	3-methoxy-1-propanol	569	4240000	0.0002973	0.759
15890-36-5	trans-4-isopropylcyclohexanol	655	3390000	0.0004788	
15890-40-1	1,cis-2,trans-3-trimethylcyclopentane	583.36	2854000	0.0004225	0.265
15892-23-6	(<+->)-2-butanol	538.22	4219000	0.0002724	0.593
1590-87-0	disilane	432	5130000	0.000223	0.0939
15901-42-5	3,3,5-trimethylcyclohexylamine	662	2800000	0.0005103	
15918-07-7	5-methyl-4-nonene	616.98	2185000	0.0005813	0.457
15918-08-8	2-propyl-1-pentene	566.22	2660000	0.0004655	0.361
1595-04-6	1-methyl-3-butylbenzene	679.41	2608000	0.0005435	0.442
1595-05-7	1-methyl-4-butylbenzene	682.25	2608000	0.0005435	0.442
1595-06-8	1-methyl-2-sec-butylbenzene	671.35	2630000	0.0005375	0.412
1595-11-5	1-methyl-2-butylbenzene	683.67	2608000	0.0005435	0.442
1595-16-0	1-methyl-4-sec-butylbenzene	672.78	2630000	0.0005375	0.412
1599-67-3	1-docosene	790.73	925000	0.0012485	0.756
1599-68-4	1-heneicosene	779.35	981000	0.0011925	0.762
16020-17-0	1,2,4,7-tetramethylnaphthalene	810.54	2389000	0.0006335	0.535
16021-20-8	1-ethyl-2-propylbenzene	676.56	2608000	0.0005435	0.442
1603-53-8	1,1-diphenyldodecane	832.8	1340000	0.001275	0.83
1603-84-5	carbon oxyselenide	406.58	8630000	0.00010732	0.338
16052-42-9	(1R)-(-)-menthyl chloride	682.53	2137000	0.0006245	0.516
16088-62-3	(S)-(-)-propylene oxide	501.13	5337000	0.000187	0.236
1609-86-5	2-isocyanato-2-methylpropane	568	3440000	0.00036	0.415
1610-29-3	2-methyl-2-penteN-1-ol	587	3900000	0.0003038	
16106-59-5	4,5-dimethyl-1-hexene	558.62	2690000	0.0004525	0.327
1613-34-9	2-ethylquinoline	775.1	3363000	0.0005145	0.497
1613-45-2	5-methyl-3-thiahexane	601.86	3196000	0.0004195	0.351
1613-46-3	4-thiaoctane	653.5	2851000	0.0004815	0.318
1613-51-0	thiacyclohexane	657.12	4653000	0.0002955	0.22
1613-52-1	2-ethylthiacyclohexane	646.42	3497000	0.0004065	0.288
16130-73-7	diheptadecylamine	969.08	501000	0.0019745	
16136-84-8	cis-1-chloro-1-propene	485.56	4498000	0.0002325	0.208
16136-85-9	trans-1-chloro-1-propene	492.86	4498000	0.0002325	0.208
1615-75-4	1-chloro-1-fluoroethane	458.07	4541000	0.000209	0.219
16165-33-6	diundecylamine	804.24	909000	0.0013025	0.8
1617-18-1	ethyl 3-butenoate	569	3250000	0.000376	0.434
1617-31-8	3-methyl-3-butenoic acid	676	4031000	0.0003235	0.399
1617-32-9	trans-3-pentenoic acid	676	4057000	0.0003215	0.415
1618-26-4	2,4-dithiapentane	624	4615000	0.000305	0.306
16219-75-3	ethylidene norbornene	629	3400000	0.0004081	0.314
1622-10-2	1,5-dibromoheptane	700.05	3288000	0.0005455	0.571
16230-28-7	3,4-dibromohexane	684.21	3682000	0.0004895	0.526
1629-58-9	1-penteN-3-one	575	4360000	0.000303	
1630-77-9	cis-1,2-difluoroethene	394.67	4769000	0.0001635	0.21
1630-78-0	trans-1,2-difluoroethene	394.67	4769000	0.0001635	0.21
1630-94-0	1,1-dimethylcyclopropane	464.97	4311000	0.0002705	0.204
1631-78-3	methylstannane	438.71	4672000	0.00020453	
1632-16-2	2-ethyl-1-hexene	569	2670000	0.000453	0.358
1632-70-8	5-methylundecane	645.32	1792000	0.0007015	0.548
1632-71-9	5-methyl-4-ethylnonane	639.37	1805000	0.0006955	0.519
16325-63-6	2,4,4-trimethyl-1-pentanol	606.71	2869000	0.0004855	0.706
16325-64-7	3,4,4-trimethyl-1-pentanol	606.5	2869000	0.0004855	0.706
1633-90-5	3-hexanethiol	615	3040000	0.0004145	0.353
1633-97-2	2-methyl-2-pentanethiol	615	3040000	0.0004145	0.353
16331-21-8	1-bromooctacosane	905.86	679000	0.0016655	
1634-04-4	methyl tert-butyl ether	497.1	3430000	0.000329	0.266
1634-09-9	1-butylnaphthalene	792	2680000	0.000631	0.495
1635-02-5	3,4-dimethyl-3-hexeN-2-one	635	3160000	0.0004518	
16355-92-3	1,10-diiododecane	836.2	2040000	0.0007655	0.55
1636-41-5	4,5-diethyloctane	636.66	1805000	0.0006955	0.519
1636-43-7	5,6-dimethyldecane	642.08	1805000	0.0006955	0.519
1636-44-8	4-ethyldecane	642.63	1792000	0.0007015	0.548
16369-05-4	2-amino-3-methyl-1-butanol, (±)	626.41	3790000	0.000368	0.841
16369-17-8	2-amino-4-methyl-1-pentanol, (±)	681	3440000	0.000436	0.97
16369-21-4	2-(propylamino)ethanol	626.41	3790000	0.000368	0.841
1638-22-8	4-butylphenol	743.65	3436000	0.0004215	0.542
1638-26-2	1,1-dimethylcyclopentane	547	3445000	0.00036	0.272
16386-93-9	2,2-dimethyl-4-pentenoic acid	716	2900000	0.0004518	
1639-01-6	2,3-dimethyl-2-butanethiol	615	3040000	0.0004145	0.353
1639-09-4	1-heptanethiol	645	2770000	0.000465	0.419
1640-89-7	ethylcyclopentane	569.5	3400000	0.000375	0.27
16409-46-4	menthol 3-methylbutanoate	760	1700000	0.0008364	
16416-41-4	trans-1-bromo-3-methyl-1-butene	582.5	4062000	0.0003515	0.326
16416-44-7	cis-1-bromo-3-methyl-1-butene	582.5	4062000	0.0003515	0.326
16432-53-4	1,4-hexanediol	691.94	3897000	0.0004035	1.214
16435-49-7	2-methyl-1-dodecene	673.88	1709000	0.0007455	0.571
16435-50-0	5-chloro-2-pentene	561.69	3541000	0.0003432	0.275
1647-08-1	4,4-dimethyl-1-hexene	560.33	2699000	0.0004535	0.297
1647-16-1	1,9-decadiene	646	3000000	0.0004577	
1647-23-0	1-bromo-3,3-dimethylbutane	606.7	3424000	0.0004215	0.373
1649-08-7	1,2-dichloro-1,1-difluoroethane	495.15	4560000	0.000271	0.298
1649-73-6	1-fluorooctadecane	737.1	1070000	0.001048	0.753
16491-15-9	1,5-dimethylcyclopentene	573.63	3432000	0.0003535	0.245
16499-88-0	3-butoxypropylamine	716	3300000	0.0004683	
1653-16-3	1-iodo-2-ethylhexane	665.98	2884000	0.0005025	0.857
1653-17-4	1,1,3,3-tetrachloropropane	661.02	3727000	0.0003875	0.342
1653-30-1	2-undecanol	689.7	2180000	0.000658	0.604
1653-31-2	2-tridecanol	718.6	1860000	0.000768	0.657
1653-32-3	3-tetradecanol	736.2	1715000	0.0008125	0.686
1653-34-5	2-pentadecanol	743.2	1610000	0.000878	0.728
1653-40-3	6-methyl-1-heptanol	619.19	2811000	0.0004965	0.806
16538-47-9	cis-1-iodo-1-hexene	659.87	3214000	0.0004395	0.33
1654-86-0	decyl decanoate	772	1220000	0.0010905	
1656-48-0	bis(cyanoethyl) ether	783	2830000	0.000377	0.782
16580-23-7	1-methyl-2-isopropylcyclohexane	667	2570000	0.000534	0.274
16580-24-8	1-methyl-3-isopropylcyclohexane	667	2570000	0.000534	0.274
1663-39-4	tert-butyl acrylate	592.33	2830000	0.000428	0.432
16631-63-3	1-methyl-1-propylcyclopentane	618.03	2900000	0.0004785	0.321
16644-66-9	1,1,1-tribromopentane	736.13	4615000	0.0004905	0.541
16644-98-7	trans-1-iodo-1-hexene	659.87	3214000	0.0004395	0.33
16666-42-5	cis-2-pentenoic acid	676	4057000	0.0003215	0.415
1669-44-9	3-octeN-2-one	635	3160000	0.0004518	
16696-65-4	1,11-dibromoundecane	754.56	2208000	0.0007695	0.741
16724-63-3	dihexadecylamine	936.69	547000	0.0018625	
16725-53-4	cis-9-tetradecenyl acetate	782	1600000	0.0009064	
16727-91-6	1-isobutylnaphthalene	772.68	2518000	0.0006275	0.508
16736-42-8	2,7-dimethyl-2,6-octadiene	646	3000000	0.0004577	
1674-10-8	1,2-dimethylcyclohexene	621.08	3163000	0.0004015	0.26
1674-33-5	1,2-dichloropentane	620.88	3214000	0.0004075	0.352
16744-89-1	2-methyl-5-hexeN-2-ol	601	3500000	0.000341	
16745-94-1	3,4-dimethyl-1-hexene	563.01	2690000	0.0004525	0.327
16746-02-4	2-isopropyl-1-pentene	563.69	2682000	0.0004595	0.332
16746-85-3	4-ethyl-1-hexene	555.81	2668000	0.0004585	0.357
16746-86-4	2,3-dimethyl-1-hexene	561	2760000	0.000445	0.325
16746-87-5	2,4-dimethyl-1-hexene	561.06	2682000	0.0004595	0.332
16747-25-4	2,2,3-trimethylhexane	588	2490000	0.0004989	0.332
16747-26-5	2,2,4-trimethylhexane	573.5	2380000	0.0005066	0.321
16747-28-7	2,3,3-trimethylhexane	596	2553000	0.000491	0.333
16747-30-1	2,4,4-trimethylhexane	581	2460000	0.000511	0.352
16747-31-2	3,3,4-trimethylhexane	602.3	2624000	0.000484	0.328
16747-32-3	2,2-dimethyl-3-ethylpentane	590	2570000	0.000511	0.335
16747-33-4	2,3-dimethyl-3-ethylpentane	606.8	2685000	0.000477	0.349
16747-38-9	2,3,3,4-tetramethylpentane	607.5	2720000	0.000493	0.314
16747-42-5	2,2,4,5-tetramethylhexane	598.5	2219000	0.000544	0.363
16747-44-7	2,2,3,3,4-pentamethylpentane	643.8	2584000	0.000508	0.294
16747-45-8	2,2,3,4,4-pentamethylpentane	627.3	2401000	0.000521	0.308
16747-50-5	1-methyl-1-ethylcyclopentane	582	3020000	0.000428	0.33
16751-58-9	3-aminohexane	592.91	3345000	0.0003945	0.451
16751-59-0	4-heptanamine	565.35	2919000	0.0004593	0.409
1678-80-4	1,cis-2,cis-4-trimethylcyclohexane	621.87	2649000	0.0004705	0.28
1678-81-5	1,trans-2,cis-3-trimethylcyclohexane	615.97	2649000	0.0004705	0.28
1678-82-6	trans-1-methyl-4-isopropylcyclohexane	667	2570000	0.000534	0.274
1678-91-7	ethylcyclohexane	609.15	3040000	0.00043	0.246
1678-92-8	propylcyclohexane	639.15	2807000	0.000477	0.26
1678-93-9	butylcyclohexane	667	2570000	0.000534	0.274
1678-97-3	1,2,3-trimethylcyclohexane	621.31	2740000	0.0004706	0.29
1678-98-4	isobutylcyclohexane	667	2570000	0.000534	0.274
16789-46-1	3-ethyl-2-methylhexane	588.1	2452000	0.000497	0.378
16789-51-8	3-ethyl-3-hexene	565.63	2687000	0.0004645	0.351
1679-06-7	2-hexanethiol	607	3000000	0.000417	0.339
1679-07-8	cyclopentanethiol	629	4270000	0.0003105	0.262
1679-08-9	2,2-dimethyl-1-propanethiol	570	3400000	0.000369	0.281
1679-09-0	2-methyl-2-butanethiol	566	3270000	0.0003585	0.243
1680-51-9	1,2,3,4-tetrahydro-6-methylnaphthalene	721.7	3076000	0.0004925	0.379
1680-53-1	1-methyl-4-isopropylnaphthalene	817.54	2480000	0.0006275	0.507
1680-58-6	1-sec-butylnaphthalene	818.49	2518000	0.0006275	0.508
1681-22-7	1,2,3,4-tetrahydro-1,1,2,6-tetramethylnaphthalene	760.47	2287000	0.0006605	0.511
16813-18-6	2-heptadecanol	764.4	1390000	0.000988	0.801
16844-08-9	(S)-2-chlorooctane	642.41	2443000	0.0005325	0.462
1687-61-2	3-methyl-6-ethylphenol	722.37	3787000	0.0003655	0.495
1687-64-5	2-methyl-6-ethylphenol	707.55	3787000	0.0003655	0.495
1687-65-6	2-methyl-5-ethylphenol	727.45	3787000	0.0003655	0.495
16883-48-0	1,trans-2,cis-4-trimethylcyclopentane	571.1	2854000	0.0004225	0.265
16889-72-8	tert-butyl 2-methylpropanoate	600.85	2531000	0.0004989	0.633
1689-78-7	2-tert-butylthiophene	665	3250000	0.0004332	
1689-79-8	3-tert-butylthiophene	665	3250000	0.0004332	
16891-99-9	1-nitrododecane	740.64	1799000	0.0007895	0.796
16900-07-5	5-thiatridecane	733.68	1806000	0.0007615	0.631
16900-08-6	5-thiaheptadecane	787.27	1335000	0.0009855	0.754
1691-17-4	tetrafluorodimethyl ether	420.25	4228000	0.000223	0.368
16921-96-3	iodine heptafluoride	447.53	4126000	0.0002471	0.122
1693-86-3	3-hexylthiophene	705	2600000	0.0005696	
16957-70-3	trans-2-methyl-2-pentenoic acid	696	3300000	0.0003894	
16962-07-5	aluminum borohydride	513.77	11246000	0.00011396	0.436
16967-04-7	5-thiaundecane	701.03	2141000	0.0006495	0.551
16980-61-3	cis-1,4-dimethylcyclohexanol	645	3590000	0.0004482	
16980-85-1	1-pentacosene	826.16	782000	0.0014165	
1700-10-3	1,3-cyclooctadiene	645	3900000	0.000366	0.286
17026-29-8	rhenium (VI) oxytetrafluoride	682.25			
17029-21-9	rhenium (VII) fluoride	526.62			
1703-52-2	2-ethyl-5-methylfuran	580	3870000	0.0003382	
17042-16-9	4-methyl-3-hexanone	588.11	3022000	0.0004275	0.451
17057-88-4	3,5-dimethylbiphenyl	792.44	3136000	0.000593	0.458
17057-91-9	1,3,8-trimethylnaphthalene	786.77	2671000	0.0005775	0.492
17057-92-0	1-methyl-5-ethylnaphthalene	766.55	2713000	0.0005775	0.493
17057-94-2	2-methyl-4-ethylnaphthalene	772.19	2713000	0.0005775	0.493
17059-44-8	1,2-dimethyl-3-propylbenzene	686.65	2569000	0.0005435	0.441
17059-45-9	1,3-dimethyl-2-propylbenzene	682.26	2569000	0.0005435	0.441
17059-53-9	1-methyl-6-ethylnaphthalene	770.78	2713000	0.0005775	0.493
17059-55-1	2-methyl-7-ethylnaphthalene	766.56	2713000	0.0005775	0.488
17071-47-5	butyl isobutyl ether	563.33	2507000	0.0004893	0.415
1708-29-8	2,5-dihydrofuran	542	5500000	0.000206	0.22
17085-91-5	1-tert-butylnaphthalene	781.33	2546000	0.0006225	0.445
17085-96-0	3-ethyldecane	648.96	1792000	0.0007015	0.548
17091-40-6	2-(isobutylamino)ethanol	681	3440000	0.000436	0.97
1717-00-6	1,1-dichloro-1-fluoroethane	478.85	4340000	0.000253	0.221
17179-41-8	1-methyl-3-ethylnaphthalene	770.78	2713000	0.0005775	0.493
1718-50-9	1,5-diphenylpentane	786.4	2040000	0.000836	0.587
17206-52-9	2-ethyl-2-methylcyclohexanone	690	2950000	0.0004746	
1721-89-7	2,3-dimethylquinoline	774.45	3353000	0.0005145	0.497
1721-93-3	1-methylisoquinoline	778.59	3705000	0.000463	0.428
17226-28-7	di-sec-butyl ether, (±)	563.33	2507000	0.0004893	0.415
17226-34-5	cis-3-chloro-3-hexene	583.61	3160000	0.0004005	0.341
1726-12-1	1,1-diphenylpentane	786.4	2040000	0.000836	0.587
1726-13-2	1,1-diphenylnonane	816.5	1570000	0.001077	0.731
1726-14-3	1,1-diphenyl-1-butene	790.85	2415000	0.0006965	0.509
1728-46-7	2-tert-butylcyclohexanone	710	2750000	0.0005195	
17299-07-9	(2R,5R)-2,5-hexanediol	649.93	3942000	0.0003969	1.16
1730-91-2	(S)-(+)-2-methylbutanoic acid	640.04	3886000	0.0003369	0.599
17301-94-9	4-methylnonane	610	2160000	0.000583	0.465
17302-01-1	3-ethyl-3-methylheptane	620	2310000	0.000532	0.389
17302-02-2	3,3-diethylhexane	627.8	2412000	0.00051	0.377
17302-04-4	4-ethyl-4-methylheptane	615.7	2310000	0.000525	0.39
17302-11-3	3-ethylnonane	630.13	1948000	0.0006455	0.507
17302-12-4	5-ethylnonane	619.2	1948000	0.0006455	0.507
17302-13-5	4-propyloctane	619.2	1948000	0.0006455	0.507
17302-14-6	2,2-dimethylnonane	626.62	1967000	0.0006405	0.448
17302-15-7	3,3-dimethylnonane	629.38	1967000	0.0006405	0.448
17302-16-8	3-methyl-3-ethyloctane	634.5	1967000	0.0006405	0.448
17302-17-9	3,3-diethylheptane	636.16	1967000	0.0006405	0.448
17302-18-0	4,4-dimethylnonane	623.85	1967000	0.0006405	0.448
17302-19-1	4-methyl-4-ethyloctane	626.62	1967000	0.0006405	0.448
17302-20-4	4-methyl-4-propylheptane	623.85	1967000	0.0006405	0.448
17302-21-5	4,4-diethylheptane	627.03	1967000	0.0006405	0.448
17302-22-6	3,4-dimethylnonane	629.74	1961000	0.0006395	0.478
17302-23-7	4,5-dimethylnonane	625.61	1961000	0.0006395	0.478
17302-24-8	2,4-dimethylnonane	620.12	1961000	0.0006395	0.478
17302-25-9	3,5-dimethylnonane	622.87	1961000	0.0006395	0.478
17302-26-0	4,6-dimethylnonane	621.49	1961000	0.0006395	0.478
17302-27-1	2,5-dimethylnonane	621.49	1961000	0.0006395	0.478
17302-28-2	2,6-dimethylnonane	621.49	1961000	0.0006395	0.478
17302-29-3	2,7-dimethylnonane	622.87	1961000	0.0006395	0.478
17302-30-6	2,8-dimethylnonane	626.99	1961000	0.0006395	0.478
17302-31-7	3,6-dimethylnonane	625.61	1961000	0.0006395	0.478
17302-32-8	3,7-dimethylnonane	628.36	1961000	0.0006395	0.478
17302-33-9	6-methylundecane	645.32	1792000	0.0007015	0.548
17302-36-2	5-ethyldecane	639.94	1792000	0.0007015	0.548
17302-37-3	2,2-dimethyldecane	645.65	1809000	0.0006965	0.489
17302-38-4	3,3-dimethyldecane	648.37	1809000	0.0006965	0.489
17302-39-5	3-methyl-3-ethylnonane	649.73	1809000	0.0006965	0.489
17302-40-8	3,3-diethyloctane	651.09	1809000	0.0006965	0.489
1731-81-3	undecyl acetate	707.6	1540000	0.000809	0.849
1731-84-6	methyl nonanoate	637	2200000	0.0006	0.579
1731-86-8	methyl undecanoate	667	1893000	0.0007173	0.699
1731-88-0	methyl tridecanoate	695	1660000	0.0008005	
1731-92-6	methyl heptadecanoate	746	1340000	0.0009868	
1731-94-8	methyl nonadecanoate	772	1220000	0.0010749	
17312-39-9	4,4-dimethyldecane	642.92	1809000	0.0006965	0.489
17312-40-2	4-methyl-4-ethylnonane	642.92	1809000	0.0006965	0.489
17312-41-3	4-methyl-4-propyloctane	637.48	1809000	0.0006965	0.489
17312-42-4	4,4-diethyloctane	644.29	1809000	0.0006965	0.489
17312-43-5	4-ethyl-4-propylheptane	640.2	1809000	0.0006965	0.489
17312-44-6	2,3-dimethyldecane	648.85	1805000	0.0006955	0.519
17312-45-7	3,4-dimethyldecane	647.49	1805000	0.0006955	0.519
17312-46-8	4,5-dimethyldecane	643.43	1805000	0.0006955	0.519
17312-48-0	3,5-dimethyldecane	640.72	1805000	0.0006955	0.519
17312-49-1	4,6-dimethyldecane	638.02	1805000	0.0006955	0.519
17312-50-4	2,5-dimethyldecane	638.02	1805000	0.0006955	0.519
17312-51-5	2,7-dimethyldecane	643.43	1805000	0.0006955	0.519
17312-52-6	2,8-dimethyldecane	646.14	1805000	0.0006955	0.519
17312-53-7	3,6-dimethyldecane	642.08	1805000	0.0006955	0.519
17312-54-8	3,7-dimethyldecane	643.43	1805000	0.0006955	0.519
17312-55-9	3,8-dimethyldecane	647.49	1805000	0.0006955	0.519
17312-56-0	4,7-dimethyldecane	639.37	1805000	0.0006955	0.519
17312-57-1	3-methyldodecane	669.09	1655000	0.0007575	0.586