CASRN	Chemical	Tc	Pc	Vc	omega
17312-63-9	5-butylnonane	666.51	1673000	0.0007568	0.573
17312-64-0	2,2-dimethylundecane	663.4	1670000	0.0007525	0.529
17312-77-5	2,3-dimethylundecane	669.37	1666000	0.0007515	0.558
17312-80-0	2,4-dimethylundecane	653.35	1666000	0.0007515	0.558
17337-12-1	1,1,1-trifluorohexane	498.2	2610000	0.000412	0.409
17348-59-3	isopropyl-tert-butyl-ether	558.21	2829000	0.0004285	0.307
17352-32-8	nonadecanal	774.21	1135000	0.0011165	0.861
17361-44-3	ditetradecylamine	877.86	660000	0.0016385	
17373-27-2	dimethylnonylamine	668.7	1910000	0.000675	0.483
17373-28-3	dimethylundecylamine	700.5	1640000	0.000785	0.57
17373-29-4	dimethyltridecylamine	727.4	1400000	0.000895	0.643
1740-19-8	dehydroabietic acid	828	1750000	0.00098	0.915
1740-97-2	2-methyl-4-isopropylphenol	785.78	3408000	0.0004155	0.509
1741-83-9	2-thiaheptane	587.98	3167000	0.0004255	0.376
17430-98-7	(S)-(+)-1-cyclohexylethylamine	642	3100000	0.0004487	
17440-85-6	beryllium borohydride	591.45	4877000	0.0003025	0.147
17447-00-6	methyl cis-3-methyl-2-pentenoate	592.33	2830000	0.000428	0.432
17447-01-7	methyl trans-3-methyl-2-pentenoate	592.33	2830000	0.000428	0.432
1745-16-0	3-pentenylbenzene	703	2800000	0.0005213	
17453-92-8	5,5-dimethyldecane	640.2	1809000	0.0006965	0.489
1746-23-2	4-tert-butylstyrene	709	2480000	0.000594	0.422
17516-95-9	3,cis-5-dimethylcyclohexene	597.92	3163000	0.0004015	0.26
17540-75-9	4-sec-butyl-2,6-di-tert-butylphenol	770	1700000	0.0008549	
17577-93-4	2-methyl-5-octeN-4-one	655	2860000	0.0005112	
1758-85-6	1-methyl-2,4-diethylbenzene	678.57	2569000	0.0005435	0.441
1758-88-9	2-ethyl-p-xylene	663	2880000	0.000482	0.411
1759-53-1	cyclopropanecarboxylic acid	656.42	4660000	0.0002691	0.5
1759-58-6	trans-1,3-dimethylcyclopentane	553	3445000	0.00036	0.27
1759-64-4	1,6-dimethylcyclohexene	610.68	3163000	0.0004015	0.26
1759-81-5	4-methylcyclopentene	527	4130000	0.000303	0.236
17616-44-3	1,3-diiodo-2-methylpropane	726.41	3727000	0.0004295	0.287
17618-76-7	2-methyl-3-heptene	564.74	2694000	0.0004588	0.328
1762-95-4	ammonium thiocyanate	854	8230000	0.000248	0.359
17648-05-4	2,5-dimethyl-2,5-diphenylhexane	810	1670000	0.001014	0.698
17661-50-6	tetradecyl stearate	875	700000	0.0019079	
17678-60-3	dimethylpentadecylamine	750.5	1200000	0.001005	0.699
17679-92-4	1-octeN-3-yne	570	3300000	0.0003728	
17696-37-6	4-tert-butyl-2,5-dimethylphenol	755.67	2747000	0.0005987	0.59
17702-41-9	decaborane	791.78	5902000	0.00033463	0.203
1772-10-7	1-methyl-3-sec-butylbenzene	668.49	2630000	0.0005375	0.412
17760-40-6	1,1,1-trichlorohexane	657.17	2811000	0.0005075	0.389
17773-64-7	2-chloro-3-methyl-1-butene	555.9	3543000	0.0003405	0.252
17773-65-8	2-chloro-3-methyl-2-butene	563.35	3573000	0.0003465	0.247
17773-66-9	2,2-dichloro-3-methylbutane	633.42	3284000	0.0003965	0.262
17839-26-8	ethylpentylamine	575	2750000	0.000455	0.496
17851-27-3	1,2,4-trimethyl-5-ethylbenzene	689.07	2530000	0.0005435	0.441
1790-22-3	1,2,4-trichlorobutane	652.82	3440000	0.0004005	0.362
17912-17-3	1,5-dibromooctane	716.02	2954000	0.0006015	0.616
1795-01-3	3-ethylthiophene	626.7	4060000	0.000325	0.298
1795-04-6	2,3,4-trimethylthiophene	654.54	3647000	0.000383	0.431
1795-05-7	2,3,5-trimethylthiophene	656.26	3647000	0.0003825	0.341
1795-09-1	2-methylthiacyclopentane	637	4306000	0.0003025	0.229
1795-15-9	octylcyclohexane	723.61	1800000	0.0007525	0.538
1795-16-0	decylcyclohexane	751.25	1650000	0.000858	0.663
1795-17-1	dodecylcyclohexane	772.83	1331000	0.0009765	0.675
1795-18-2	tetradecylcyclohexane	792.82	1162000	0.0010885	0.719
1795-20-6	octylcyclopentane	702.06	1914000	0.0007045	0.526
1795-21-7	decylcyclopentane	730.64	1629000	0.0008165	0.604
1795-22-8	tetradecylcyclopentane	772	1120000	0.0010405	0.789
1795-26-2	cis,trans-1,3,5-trimethylcyclohexane	602.2	2840000	0.000472	0.367
1795-27-3	cis,cis-1,3,5-trimethylcyclohexane	607.86	2649000	0.0004705	0.274
17952-11-3	1-ethoxy-pentane	558.21	2829000	0.0004285	0.307
1805-61-4	4-isopentylphenol	751	2980000	0.000546	0.569
1806-26-4	4-octylphenol	765	2280000	0.000704	0.631
1809-05-8	3-iodopentane	588.5	4078000	0.0003285	0.694
1809-10-5	3-bromopentane	587.16	3806000	0.0003715	0.359
1809-26-3	4-bromo-2-pentene	586.22	4033000	0.0003562	0.334
18094-01-4	2-methyl-1-tridecene	690.08	1755000	0.0008015	0.669
1812-51-7	2-ethylbiphenyl	777.4	3130000	0.000593	0.45
1814-88-6	1,1,1,2,2-pentafluoropropane	380.11	3137000	0.0002732	0.305
18172-67-3	(1S)-(-)-b-pinene	647	2780000	0.0005053	0.341
1821-39-2	2-propylaniline	705.58	3284000	0.000482	0.413
18217-12-4	5-methyl-2-heptanone	624	2640000	0.000469	0.528
18231-53-3	3,3-dimethyl-2-ethyl-1-butene	568.22	2713000	0.0004545	0.272
1825-14-5	DL-2,4-pentanediol	630.45	4456000	0.0003415	1.142
18254-57-4	1,1-dicyclohexyldodecane	825.63	1033000	0.0012455	0.729
18261-92-2	3-octadecanone	758.47	1203000	0.0010495	0.838
18262-85-6	1-ethyl-2,3,5-trimethylbenzene	678.03	2602000	0.0005401	0.42
18281-05-5	ethyl eicosanoate	764	1110000	0.0011296	
18283-93-7	tetraborane	466.66	3884000	0.00027367	0.107
18295-25-5	2-bromo-3-methylbutane	587.23	3844000	0.0003655	0.328
18295-27-7	2-iodo-3-methylbutane	585.43	4120000	0.0003225	0.66
18295-59-5	2-propylpentanal	614	2565000	0.000474	0.534
18300-91-9	pentadecanenitrile	756.38	1389000	0.0009015	0.805
18328-90-0	N-ethyl-2-methylallylamine	556	3180000	0.000405	0.355
18338-40-4	1,2,3-trichlorobutane	656.99	3472000	0.0003945	0.332
18356-71-3	silane, dichlorodifluoro	369	3500000	0.00024769	0.072
18362-97-5	isopropyl pentanoate	602	2610000	0.000494	0.395
18371-13-6	2-methyl-2-ethyl-1-butanol	593.16	3160000	0.0004355	0.695
18371-24-9	1,3-diiodobutane	726.41	3727000	0.0004295	0.287
1838-59-1	allyl formate	530	4250000	0.00027	0.343
1838-73-9	3-methyl-4-heptanol	591.45	2835000	0.0004905	0.773
1838-77-3	4-methyl-5-hexeN-3-ol	601	3500000	0.000341	
1839-63-0	1,3,5,-trimethylcyclohexane	621.31	2740000	0.0004706	0.29
1839-88-9	1,cis-2,cis-3-trimethylcyclohexane	629.26	2649000	0.0004705	0.28
18402-83-0	trans-3-noneN-2-one	655	2860000	0.0005112	
18409-17-1	trans-2-octeN-1-ol	615	3100000	0.0003875	
1842-05-3	1,1-dichloro-1,2-difluoroethane	488.39	4136000	0.0002705	0.264
18433-84-6	pentaborane	547.13	4129000	0.00030182	0.134
18435-20-6	2,3-dimethyltridecane	701.64	1433000	0.0008635	0.629
18435-22-8	3-methyltetradecane	700.41	1424000	0.0008695	0.654
18435-23-9	2,3-dimethyltetradecane	716.26	1334000	0.0009692	0.659
18435-45-5	1-nonadecene	760	1280000	0.0011	0.841
18435-53-5	1-triacontene	857	847000	0.00171	1.18
18435-54-6	1-hentriacontene	901.89	580000	0.0017525	
18435-55-7	1-dotriacontene	915.81	554000	0.0018085	
18437-89-3	5-thiaheneicosane	832.33	1027000	0.0012095	0.795
18441-55-9	2,4-dimethyl-5-ethylphenol	733.24	3318000	0.0004215	0.54
18441-56-0	2-methyl-4-propylphenol	734.16	3376000	0.0004215	0.541
18476-57-8	4,5-dimethyl-2,6-octadiene	646	3000000	0.0004577	
18479-51-1	3,7-dimethyl-6-octeN-3-ol	643	2300000	0.0005276	
18479-57-7	2,6-dimethyt-2-octanol	644.39	2359000	0.0005975	0.788
18495-30-2	1,1,2,3-tetrachloropropane	677.77	3727000	0.0003875	0.342
18516-37-5	2-methyl-1-undecene	656.53	1853000	0.0006895	0.532
18521-07-8	cis-2-methyl-3-octeN-2-ol	629	2700000	0.0004473	
18589-29-2	2-iodoheptane	646.56	3206000	0.0004465	0.816
18593-92-5	3-methyl-2-isopropyl-1-butanol	606.01	2860000	0.0004845	0.741
1860-27-1	1-(1-methylethoxy)butane	549	2740000	0.000435	0.403
18610-33-8	4-chloro-trans-2-pentene	564.66	3564000	0.0003385	0.267
18636-94-7	dimethyl-3-pentylamine	563.35	2941000	0.0004595	0.406
18675-20-2	2,4-dimethyl-2-octanol	644.39	2359000	0.0005975	0.788
1871-57-4	3-chloro-2-(chloromethyl)-1-propene	640	3798000	0.000332	0.302
1871-58-5	1,2,3-trichloro-2-methylpropane	659.52	3485000	0.0003955	0.3
1871-67-6	trans-2-octenoic acid	736	2700000	0.0004944	
18720-62-2	2-methyl-3-heptanol	595.37	2835000	0.0004905	0.773
18720-65-5	5-methyl-3-heptanol	576.46	2835000	0.0004905	0.773
18720-66-6	6-methyl-3-heptanol	584.9	2835000	0.0004905	0.773
1873-29-6	isobutyl isocyanate	568	3440000	0.00036	0.415
1873-54-7	3-ethylquinoline	775.67	3412000	0.0005145	0.498
1878-18-8	2-methyl-1-butanethiol	591	3500000	0.000364	0.306
18787-63-8	2-hexadecanone	736.51	1381000	0.0009375	0.81
18787-64-9	3-hexadecanone	736.51	1381000	0.0009375	0.81
1879-09-0	2-tert-butyl-4,6-dimethylphenol	755.67	2747000	0.0005987	0.59
18800-51-6	2,3-dimethylthiophenol	730.98	3806000	0.0004295	0.373
18800-53-8	3,4-dimethylthiophenol	730.98	3806000	0.0004295	0.373
18812-62-9	2-methyl-3-hexeN-2-ol	601	3500000	0.000341	
18826-95-4	1-methyl-1,3-propanediol	652.97	5030000	0.0002915	1.141
18829-55-5	2-heptenal	610	3300000	0.000358	
18829-56-6	trans-2-nonenal	650	2600000	0.0004801	
18835-32-0	1-tricosene	802.72	873000	0.0013045	0.742
18835-33-1	1-hexacosene	837.68	742000	0.0014725	
18835-34-2	1-octacosene	861.7	670000	0.0015845	
18835-35-3	1-nonacosene	875.48	638000	0.0016405	
1886-75-5	di-tert-butylsulfone	767	2540000	0.000569	0.688
18869-72-2	9-methylheptadecane	737.16	1171000	0.0010886	0.724
1888-57-9	2,5-dimethyl-3-hexanone	624	2640000	0.000469	0.528
1888-85-3	sec-butyl vinyl ether	536	3120000	0.000364	0.38
1889-67-4	2,3-dimethyl-2,3-diphenylbutane	805	1990000	0.000781	0.521
18908-66-2	1-bromo-2-ethylhexane	665.09	2721000	0.0005455	0.524
18931-71-0	1,1-dimethylcyclobutane	514.04	3936000	0.0003185	0.218
18932-14-4	2,2,4-trimethyloctane	618.73	1981000	0.0006345	0.419
18936-17-9	2-methylbutanenitrile	585.8	3400000	0.0003355	0.397
18938-47-1	3-methyl-3,4-hexanediol	677.27	3547000	0.0004485	1.141
18963-00-3	1,2,3-trichloro-2-(chloromethyl)propane	690	3400000	0.0004395	
18963-01-4	1,1,2,3-tetrachloro-2-methylpropane	690	3400000	0.0004395	
18970-44-0	1-ethyl-2-isopropylbenzene	666	2670000	0.00053	0.418
18999-28-5	2-heptenoic acid	716	2900000	0.0004518	
19009-56-4	2-methyldecanal	672	2000000	0.000632	0.697
19031-61-9	3-fluoro-3-methylpentane	508.31	3019000	0.0003785	0.282
19037-72-0	4,4-dimethylcyclopentene	559.35	3768000	0.0003525	0.232
19089-47-5	2-ethoxy-1-propanol	582	3670000	0.0003501	0.783
19089-92-0	hexyl-2-butenoate	650	2350000	0.0005402	
19113-78-1	3,5-dimethyl-3-hexanol, (±)	600.92	2849000	0.000488	0.733
19132-06-0	(2S,3S)-(+)-2,3-butanediol	630.99	5032000	0.0002899	1.127
19177-04-9	1-methyl-3-(1-methylethoxy)benzene	670	2840000	0.000495	0.445
19182-11-7	1,2-diethylnaphthalene	812.35	2460000	0.0006335	0.537
19182-13-9	1,6-diethylnaphthalene	812.35	2460000	0.0006335	0.537
19184-10-2	cis-1-fluoro-1-propene	430.49	4450000	0.0002015	0.208
1921-70-6	2,6,10,14-tetramethylpentadecane	748.87	1095000	0.0011483	0.741
19218-94-1	1-iodotetradecane	758.94	1682000	0.0008385	1.03
19264-94-9	3,3-dimethyl-1-pentanol	604.2	3160000	0.0004355	0.695
19269-28-4	3-methylhexanal	593	2850000	0.000434	0.464
1928-30-9	2-methyltricosane	814.95	806000	0.0014468	0.71
19287-45-7	diborane	289.8	4053000	0.0001731	0.125
19313-57-6	5-thiapentadecane	762.23	1544000	0.0008735	0.7
19313-61-2	3-thiatridecane	733.68	1806000	0.0007615	0.631
19374-46-0	1,trans-2,cis-3-trimethylcyclopentane	572.46	2854000	0.0004225	0.265
19398-53-9	2,4-dibromopentane	673.87	4195000	0.0004275	0.448
19398-61-9	2,5-dichlorotoluene	710	3620000	0.000404	0.343
19398-75-5	1,3-diethylcyclopentane	610.99	2681000	0.0004773	0.302
19398-77-7	3,4-diethylhexane	618.8	2330000	0.000519	0.403
1940-18-7	1-ethylcyclohexanol	645	3590000	0.0004482	
19411-41-7	3,3,4-trimethyl-2-pentanol	602.05	2894000	0.0004795	0.674
1942-45-6	4-octyne	594.1	2959000	0.0004443	0.359
1942-46-7	5-decyne	642.22	2446000	0.0005575	0.417
19447-29-1	2-nonyne	630.31	2707000	0.0005015	0.368
1945-53-5	palustric acid	789	1720000	0.000993	0.917
19482-57-6	2,2-dimethyl-3-octyne	642.22	2446000	0.0005575	0.417
19484-26-5	1-tridecanethiol	742.13	1733000	0.0008175	0.673
19486-08-9	2,2-dimethylhexadecane	734.97	1167000	0.0010886	0.683
19489-10-2	1-methyl-cis3-ethylcyclohexane	620.1	2741000	0.0004715	0.305
19522-67-9	N-isopropylethylenediamine	637.67	4210000	0.000358	0.591
19522-69-1	N-butylethylenediamine	663	3810000	0.0004084	0.65
19549-70-3	2,2-dimethyl-3-heptanol	607.23	2595000	0.0005415	0.748
19549-71-4	2,3-dimethyl-3-heptanol	602.05	2595000	0.0005415	0.748
19549-73-6	2,6-dimethyl-3-heptanol	600.27	2587000	0.0005405	0.782
19549-74-7	3,5-dimethyl-3-heptanol	605.89	2595000	0.0005415	0.748
19549-77-0	2,4-dimethyl-4-heptanol	598.55	2595000	0.0005415	0.748
19549-78-1	3,3-dimethyl-4-heptanol	604.74	2595000	0.0005415	0.748
19549-79-2	3,5-dimethyl-4-heptanol	616.34	2587000	0.0005405	0.782
19549-83-8	2,6-dimethyl-3-heptanone	629.65	2467000	0.0005338	0.541
19549-84-9	3,5-dimethyl-4-heptanone	629.65	2467000	0.0005338	0.541
19549-97-4	2,6-dimethyl-3-heptyne	621.49	2696000	0.0005015	0.373
19550-02-8	2,3-dimethyl-1-hexanol	603.81	2835000	0.0004905	0.773
19550-03-9	2,3-dimethyl-2-hexanol	591.82	2869000	0.0004855	0.706
19550-05-1	3,4-dimethyl-2-hexanol	603.29	2860000	0.0004845	0.741
19550-07-3	2,5-dimethyl-3-hexanol	587	2860000	0.0004845	0.741
19550-08-4	3,4-dimethyl-3-hexanol	580.75	2869000	0.0004855	0.706
19550-09-5	4,4-dimethyl-3-hexanol	590.31	2869000	0.0004855	0.706
19550-10-8	3,4-dimethyl-2-hexanone	624	2640000	0.000469	0.528
19550-14-2	4,4-dimethyl-3-hexanone	624	2640000	0.000469	0.528
19550-30-2	2,3-dimethyl-1-butanol	599	3470000	0.000373	0.576
19550-40-4	3,cis-6-dimethylcyclohexene	597.92	3163000	0.0004015	0.26
19550-48-2	1,4-dimethylcyclopentene	560.17	3432000	0.0003535	0.245
19550-81-3	3,4-dimethyl-cis2-hexene	570.01	2710000	0.0004585	0.322
19550-82-4	3,4-dimethyl-trans-2-hexene	570.01	2710000	0.0004585	0.322
19550-83-5	4,4-dimethyl-trans-2-hexene	560.54	2727000	0.0004525	0.287
19550-87-9	3,4-dimethyl-cis3-hexene	578	2701000	0.0004655	0.326
19550-88-0	3,4-dimethyl-trans-3-hexene	578	2701000	0.0004655	0.326
19624-22-7	pentaborane	568.45	4641000	0.0002851	
19655-56-2	8-ethylquinoline	761.28	3412000	0.0005145	0.498
19655-60-8	6-ethylquinoline	771.14	3412000	0.0005145	0.498
19689-18-0	4-decene	616.98	2185000	0.0005813	0.457
1969-43-3	1-ethoxy-heptane	592.67	2298000	0.0005412	0.508
1974-04-5	2-bromoheptane	651	3080000	0.000447	0.444
1975-78-6	decanenitrile	692.64	2060000	0.0006215	0.645
19780-10-0	5-dodecanone	687.46	1879000	0.0007135	0.691
19780-25-7	2-ethylcrotonaldehyde	590	3700000	0.0003101	
19780-39-3	3-ethyl-2-heptanol	606.35	2566000	0.0005465	0.814
19780-41-7	3-ethyl-3-heptanol	609.87	2574000	0.0005475	0.78
19780-44-0	4-ethyl-3-hexanol	590.5	2835000	0.0004905	0.773
19780-63-3	2-methyl-3-ethyl-2-pentanol	588.68	2869000	0.0004855	0.706
19780-65-5	3-ethyl-3-methyl-2-pentanone	624	2640000	0.000469	0.528
19780-66-6	2-methyl-3-ethyl-1-pentene	559.31	2682000	0.0004595	0.332
19780-67-7	2-methyl-3-ethyl-2-pentene	570.68	2701000	0.0004655	0.326
19780-90-6	2,4-hexanediol	649.93	3942000	0.0003969	1.16
19780-96-2	2,8-dimethyl-5-nonanol	696.85	2130000	0.0006505	0.596
19781-10-3	2,3-dimethyl-3-octanol	614.17	2359000	0.0005975	0.788
19781-11-4	2,7-dimethyl-4-octanol	613.56	2352000	0.0005965	0.822
19781-13-6	4,7-dimethyl-4-octanol	618.02	2359000	0.0005975	0.788
19781-24-9	3,3-dimethyl-2-pentanol	582.97	3188000	0.0004295	0.662
19781-27-2	6-ethyl-3-octanol	621.23	2334000	0.0006025	0.852
19781-63-6	4-ethyl-trans-2-hexene	562.03	2696000	0.0004575	0.347
19781-68-1	1-methyl-cis2-ethylcyclopropane	518.53	3472000	0.0003275	0.26
19781-69-2	1-methyl-trans-2-ethylcyclopropane	505.8	3472000	0.0003275	0.26
19781-73-8	heptadecylcyclohexane	823.97	964000	0.0012565	0.748
19781-77-2	6-hepteN-3-ol	601	3500000	0.000341	
19812-64-7	1,14-tetradecanediol	773.63	1768000	0.0008575	1.304
19841-72-6	2,2-dimethyl-3-octanol	620.48	2359000	0.0005975	0.788
1985-57-5	(1,1-dimethylbutyl)benzene	697.15	2361000	0.000602	0.437
1985-59-7	1,2,3,4-tetrahydro-1,1-dimethylnaphthalene	737.62	2773000	0.0005485	0.424
1985-97-3	(1-ethyl-1-methylpropyl)benzene	697.15	2361000	0.000602	0.437
19866-51-4	cis-3-methyl-2-pentenoic acid	696	3300000	0.0003894	
1987-50-4	4-heptylphenol	760.33	2513000	0.0006513	0.61
19879-11-9	cis-1,2-dimethylcyclohexanol	645	3590000	0.0004482	
19879-12-0	trans-1,2-dimethyl cyclohexanol	645	3590000	0.0004482	
19889-37-3	2-ethyl-2-methylbutanoic acid	680	2990000	0.000442	0.717
19902-08-0	βpinene, (1R)	647	2780000	0.0005053	0.341
19902-98-8	1,cis-3-dimethyl-trans-2-ethylcyclopentane	599.81	2582000	0.0004785	0.309
19902-99-9	1,trans-3-dimethyl-cis2-ethylcyclopentane	610.05	2582000	0.0004785	0.309
19903-00-5	1,cis-3-dimethyl-cis2-ethylcyclopentane	621.75	2582000	0.0004785	0.309
19907-40-5	1,trans-2,trans-3,cis-4-tetramethylcyclopentane	592.68	2498000	0.0004775	0.284
19947-22-9	(1-ethylallyl)benzene	703	2800000	0.0005213	
19961-27-4	ethylisopropylamine	513.8	3490000	0.000345	0.403
20024-90-2	1-ethyl-4-propylbenzene	679.41	2608000	0.0005435	0.442
20024-91-3	1-ethyl-3-propylbenzene	673.72	2608000	0.0005435	0.442
20027-77-4	1,2,3,4-tetrahydro-5,6-dimethylnaphthalene	737.62	2773000	0.0005485	0.424
20030-32-4	1,4,5-trimethylcyclohexene	620	2860000	0.0004518	
20038-12-4	4-bromo-2-methyl-1-butene	569.33	3996000	0.0003595	0.341
2004-67-3	4-methyl-4-penteN-2-ol	587	3900000	0.0003038	
2004-69-5	trans-3-penteN-1-yne	505	4393000	0.0002533	0.189
2004-70-8	trans-1,3-pentadiene	500	3740000	0.000276	0.116
20056-92-2	trans-7-dodeceN-1-ol	671	2000000	0.0006112	
20063-92-7	trans-3-nonene	593.62	2372000	0.0005248	0.411
20089-07-0	2-methyl-1-butanethiol, (+)	583.5	3418000	0.0003652	0.284
2009-74-7	6-methyl-3-hepteN-2-one	635	3160000	0.0004518	
2014-83-7	1,3-dichloro-2-(chloromethyl)-propane	597.58	3440000	0.0004005	0.362
20150-89-4	5,7-dimethylquinoline	786.16	3353000	0.0005145	0.497
2016-42-4	tetradecylamine	722	1660000	0.00084	0.861
2016-57-1	decylamine	663	2180000	0.000629	0.666
20177-02-0	2,5-dichloro-2-pentene	660	3500000	0.000376	
20184-89-8	3-nonyne	623.36	2707000	0.0005015	0.368
20184-91-2	4-nonyne	621.49	2696000	0.0005015	0.373
20193-20-8	ethylpropylamine	520	3400000	0.000345	0.393
20193-21-9	N-propylbutylamine	565.35	2919000	0.0004593	0.409
20198-49-6	4-methyl-2-hexyne	568.05	3372000	0.0003835	0.25
20232-11-5	6-methyl-1H-indene	693.5	3460000	0.0004345	0.332
20237-34-7	1,trans-3-hexadiene	526.7	3460000	0.0003325	0.266
20247-89-6	(1-methyl-1-pentenyl)benzene	723	2550000	0.0005863	
2026-48-4	(S)-(+)-2-amino-3-methyl-1-butanol	626.41	3790000	0.000368	0.841
2027-17-0	2-isopropylnaphthalene	770.24	2779000	0.0005715	0.463
2027-19-2	2-propylnaphthalene	772.44	2756000	0.0005775	0.488
20278-84-6	2,4,5-trimethylheptane	606.9	2239000	0.000544	0.397
20278-85-7	2,3,5-trimethylheptane	612.8	2239000	0.000547	0.397
20278-87-9	3,3,4-trimethylheptane	622.1	2371000	0.000526	0.365
20278-88-0	3,4,4-trimethylheptane	620.9	2371000	0.000524	0.365
20278-89-1	3,4,5-trimethylheptane	612.8	2239000	0.000547	0.417
20281-83-8	3-methyl-1-pentanol, (±)	581.8	3461000	0.0003774	0.582
20281-85-0	2,3-dimethyl-1-butanol, (±)-	581.8	3461000	0.0003774	0.582
20281-86-1	(RS)-2-hexanol	581.8	3461000	0.0003774	0.582
20281-91-8	3,3-dimethyl-2-butanol, (±)	581.8	3461000	0.0003774	0.582
20291-60-5	2-thiaoctane	638.37	2851000	0.0004815	0.42
20291-61-6	2-thianonane	660.72	2579000	0.0005375	0.465
20291-91-2	3-ethyl-2,2-dimethylhexane	611.7	2310000	0.000526	0.369
20291-95-6	2,2,5-trimethylheptane	598	2168000	0.000559	0.389
20294-76-2	1,2-octadecanediol	814.33	1318000	0.0010755	1.135
20309-77-7	1,1,cis-3,cis-4-tetramethylcyclopentane	602.33	2704000	0.0004765	0.271
20327-65-5	trans-1-fluoro-1-propene	430.49	4450000	0.0002015	0.208
2035-99-6	isoamyl caprylate	682	1740000	0.000776	0.759
20352-67-4	ethylhexylamine	599.8	2520000	0.00051	0.535
2039-89-6	2-ethenyl-1,4-dimethylbenzene	680.23	2970000	0.0004685	0.375
2039-90-9	2,6-dimethylstyrene	679.34	2970000	0.0004685	0.375
2039-93-2	(1-methylenepropyl)benzene	666	3010000	0.000454	0.354
20395-24-8	1,1-dichlorooctane	672.06	2375000	0.0005755	0.485
20395-25-9	1,1,3-trichloropropane	635.01	3863000	0.0003445	0.317
20396-66-1	diborane, deutero	293.74	3217000	0.00020801	0.017
2040-95-1	butylcyclopentane	621	2720000	0.000483	0.372
2040-96-2	propylcyclopentane	596	3020000	0.000428	0.327
2044-21-5	dinonylamine	761.5	1330000	0.001062	0.891
2044-22-6	trinonylamine	802.99	703000	0.0015855	