CASRN	Chemical	Tc	Pc	Vc	omega
62185-06-2	2,2,5,5-tetramethyl-3-ethylhexane	632.16	1852000	0.0006795	0.375
62185-07-3	2,3,3,4-tetramethyl-4-ethylhexane	671.22	1852000	0.0006795	0.375
62185-08-4	2,3,3,5-tetramethyl-4-ethylhexane	651.79	1847000	0.0006785	0.404
62185-09-5	2,3,4,4-tetramethyl-3-ethylhexane	671.22	1852000	0.0006795	0.375
62185-10-8	2,3,4,5-tetramethyl-3-ethylhexane	657.33	1847000	0.0006785	0.404
62185-11-9	2,2,3,3,4,4-hexamethylhexane	691.43	1869000	0.0006745	0.318
62185-12-0	2,2,3,3,4,5-hexamethylhexane	662.99	1864000	0.0006735	0.347
62185-13-1	2,2,3,4,4,5-hexamethylhexane	672.82	1864000	0.0006735	0.347
62185-14-2	2,2,3,4,5,5-hexamethylhexane	650.35	1864000	0.0006735	0.347
62185-15-3	2,2,4-trimethyl-3,3-diethylpentane	668.43	1852000	0.0006795	0.375
62185-16-4	2,4-dimethyl-3-ethyl-3-isopropylpentane	664.26	1847000	0.0006785	0.404
62185-17-5	2,2,3,4-tetramethyl-3-isopropylpentane	670.01	1864000	0.0006735	0.347
62185-18-6	2,2,4,4-tetramethyl-3-isopropylpentane	655.97	1864000	0.0006735	0.347
62185-19-7	3,4,4,6-tetramethyloctane	645.03	1834000	0.0006845	0.432
62185-20-0	3,4,5,5-tetramethyloctane	647.78	1834000	0.0006845	0.432
62185-21-1	3,4,5,6-tetramethyloctane	646.71	1829000	0.0006835	0.462
62185-22-2	4,4,5,5-tetramethyloctane	655.89	1839000	0.0006855	0.403
62185-23-3	2-methyl-4-tert-butylheptane	631.25	1834000	0.0006845	0.432
62185-24-4	3-methyl-4-tert-butylheptane	638.14	1834000	0.0006845	0.432
62185-25-5	4-methyl-4-tert-butylheptane	653.12	1839000	0.0006855	0.403
62185-26-6	3-ethyl-4-propylheptane	635.31	1805000	0.0006955	0.519
62185-27-7	3-ethyl-4-isopropylheptane	637.53	1817000	0.0006895	0.491
62185-28-8	4-ethyl-4-isopropylheptane	648.03	1822000	0.0006905	0.461
62185-29-9	2,2,3,4-tetramethyl-3-pentanol	612.5	2646000	0.0005305	0.651
62185-30-2	2,3-dimethyl-4-propylheptane	636.16	1817000	0.0006895	0.491
62185-31-3	2,4-dimethyl-4-propylheptane	632.97	1822000	0.0006905	0.461
62185-32-4	2,5-dimethyl-4-propylheptane	630.72	1817000	0.0006895	0.491
62185-33-5	2,6-dimethyl-4-propylheptane	623.36	1817000	0.0006895	0.491
62185-34-6	3,3-dimethyl-4-propylheptane	642.55	1822000	0.0006905	0.461
62185-35-7	3,4-dimethyl-4-propylheptane	645.29	1822000	0.0006905	0.461
62185-36-8	3,5-dimethyl-4-propylheptane	638.89	1817000	0.0006895	0.491
62185-37-9	2,2-dimethyl-3-isopropylheptane	638.14	1834000	0.0006845	0.432
62185-38-0	2,2-dimethyl-4-isopropylheptane	627.12	1834000	0.0006845	0.432
62185-39-1	2,3-dimethyl-3-isopropylheptane	653.29	1834000	0.0006845	0.432
62185-40-4	2,3-dimethyl-4-isopropylheptane	637.13	1829000	0.0006835	0.462
62185-41-5	2,4-dimethyl-3-isopropylheptane	637.13	1829000	0.0006835	0.462
62185-42-6	2,4-dimethyl-4-isopropylheptane	640.89	1834000	0.0006845	0.432
62185-43-7	2,5-dimethyl-3-isopropylheptane	634.39	1829000	0.0006835	0.462
62185-44-8	2,5-dimethyl-4-isopropylheptane	633.02	1829000	0.0006835	0.462
62185-45-9	2,6-dimethyl-3-isopropylheptane	635.48	1829000	0.0006835	0.462
62185-46-0	3,3-dimethyl-4-isopropylheptane	643.65	1834000	0.0006845	0.432
62185-47-1	3,4-dimethyl-4-isopropylheptane	653.29	1834000	0.0006845	0.432
62198-55-4	2,3,4-trimethyl-4-ethylheptane	649.16	1834000	0.0006845	0.432
62198-56-5	2,3,4-trimethyl-5-ethylheptane	643.97	1829000	0.0006835	0.462
62198-57-6	2,3,5-trimethyl-3-ethylheptane	648.47	1834000	0.0006845	0.432
62198-58-7	2,3,5-trimethyl-4-ethylheptane	642.6	1829000	0.0006835	0.462
62198-59-8	2,3,5-trimethyl-5-ethylheptane	643.65	1834000	0.0006845	0.432
62198-60-1	2,3,6-trimethyl-3-ethylheptane	646.41	1834000	0.0006845	0.432
62198-61-2	2,3,6-trimethyl-4-ethylheptane	634.39	1829000	0.0006835	0.462
62198-62-3	2,3,6-trimethyl-5-ethylheptane	638.5	1829000	0.0006835	0.462
62198-63-4	2,4,4-trimethyl-3-ethylheptane	643.65	1834000	0.0006845	0.432
62198-64-5	2,4,4-trimethyl-5-ethylheptane	640.89	1834000	0.0006845	0.432
62198-65-6	2,4,5-trimethyl-3-ethylheptane	642.6	1829000	0.0006835	0.462
62198-66-7	2,4,5-trimethyl-4-ethylheptane	645.03	1834000	0.0006845	0.432
62198-67-8	2,4,5-trimethyl-5-ethylheptane	647.78	1834000	0.0006845	0.432
62198-68-9	2,4,6-trimethyl-3-ethylheptane	635.76	1829000	0.0006835	0.462
62198-69-0	2,4,6-trimethyl-4-ethylheptane	631.25	1834000	0.0006845	0.432
62198-70-3	2,5,5-trimethyl-3-ethylheptane	638.14	1834000	0.0006845	0.432
62198-71-4	2,5,5-trimethyl-4-ethylheptane	640.89	1834000	0.0006845	0.432
62198-72-5	3,3,4-trimethyl-4-ethylheptane	662.82	1839000	0.0006855	0.403
62198-73-6	3,3,4-trimethyl-5-ethylheptane	650.54	1834000	0.0006845	0.432
62198-74-7	3,3,5-trimethyl-4-ethylheptane	647.78	1834000	0.0006845	0.432
62198-75-8	3,3,5-trimethyl-5-ethylheptane	658.66	1839000	0.0006855	0.403
62198-76-9	3,4,4-trimethyl-3-ethylheptane	662.82	1839000	0.0006855	0.403
62198-77-0	3,4,4-trimethyl-5-ethylheptane	654.67	1834000	0.0006845	0.432
62198-78-1	3,4,5-trimethyl-3-ethylheptane	654.67	1834000	0.0006845	0.432
62198-79-2	3,4,5-trimethyl-4-ethylheptane	658.81	1834000	0.0006845	0.432
62198-80-5	2,2,3,3,4-pentamethylheptane	660.06	1852000	0.0006795	0.375
62198-81-6	2,2,3,3,5-pentamethylheptane	651.69	1852000	0.0006795	0.375
62198-82-7	2,2,3,3,6-pentamethylheptane	650.3	1852000	0.0006795	0.375
62198-83-8	2,2,3,4,4-pentamethylheptane	662.85	1852000	0.0006795	0.375
62198-84-9	2,2,3,4,5-pentamethylheptane	647.63	1847000	0.0006785	0.404
62198-85-0	2,2,3,4,6-pentamethylheptane	639.31	1847000	0.0006785	0.404
62198-86-1	2,2,3,5,5-pentamethylheptane	641.93	1852000	0.0006795	0.375
62198-87-2	2,2,3,5,6-pentamethylheptane	640.42	1847000	0.0006785	0.404
62198-88-3	2,2,3,6,6-pentamethylheptane	639.14	1852000	0.0006795	0.375
62198-89-4	3,5-dimethyl-4-isopropylheptane	639.86	1829000	0.0006835	0.462
62198-90-7	2-methyl-3,3-diethylheptane	652.14	1822000	0.0006905	0.461
62198-91-8	2-methyl-3,4-diethylheptane	637.53	1817000	0.0006895	0.491
62198-92-9	2-methyl-3,5-diethylheptane	637.53	1817000	0.0006895	0.491
62198-93-0	2-methyl-4,4-diethylheptane	639.81	1822000	0.0006905	0.461
62198-94-1	2-methyl-4,5-diethylheptane	634.8	1817000	0.0006895	0.491
62198-95-2	2-methyl-5,5-diethylheptane	645.29	1822000	0.0006905	0.461
62198-96-3	3-methyl-3,4-diethylheptane	649.4	1822000	0.0006905	0.461
62198-97-4	3-methyl-3,5-diethylheptane	643.92	1822000	0.0006905	0.461
62198-98-5	3-methyl-4,4-diethylheptane	653.51	1822000	0.0006905	0.461
62198-99-6	3-methyl-4,5-diethylheptane	641.61	1817000	0.0006895	0.491
62199-00-2	3-methyl-5,5-diethylheptane	646.66	1822000	0.0006905	0.461
62199-01-3	4-methyl-3,3-diethylheptane	654.88	1822000	0.0006905	0.461
62199-02-4	4-methyl-3,4-diethylheptane	649.4	1822000	0.0006905	0.461
62199-03-5	4-methyl-3,5-diethylheptane	644.34	1817000	0.0006895	0.491
62199-04-6	2,2,3-trimethyl-3-ethylheptane	655.89	1839000	0.0006855	0.403
62199-05-7	2,2,3-trimethyl-4-ethylheptane	642.27	1834000	0.0006845	0.432
62199-06-8	2,2,3-trimethyl-5-ethylheptane	640.89	1834000	0.0006845	0.432
62199-07-9	2,2,4-trimethyl-3-ethylheptane	640.89	1834000	0.0006845	0.432
62199-08-0	2,2,4-trimethyl-4-ethylheptane	647.57	1839000	0.0006855	0.403
62199-09-1	2,2,4-trimethyl-5-ethylheptane	634	1834000	0.0006845	0.432
62199-10-4	2,2,5-trimethyl-3-ethylheptane	638.14	1834000	0.0006845	0.432
62199-11-5	2,2,5-trimethyl-4-ethylheptane	632.63	1834000	0.0006845	0.432
62199-12-6	2,2,5-trimethyl-5-ethylheptane	640.64	1839000	0.0006855	0.403
62199-13-7	2,2,6-trimethyl-3-ethylheptane	638.14	1834000	0.0006845	0.432
62199-14-8	2,2,6-trimethyl-4-ethylheptane	624.36	1834000	0.0006845	0.432
62199-15-9	2,2,6-trimethyl-5-ethylheptane	634	1834000	0.0006845	0.432
62199-16-0	2,3,3-trimethyl-4-ethylheptane	650.54	1834000	0.0006845	0.432
62199-17-1	2,3,3-trimethyl-5-ethylheptane	643.65	1834000	0.0006845	0.432
62199-18-2	2,3,4-trimethyl-3-ethylheptane	656.05	1834000	0.0006845	0.432
62199-19-3	2,2,5,7-tetramethyloctane	631.25	1834000	0.0006845	0.432
62199-20-6	2,2,6,6-tetramethyloctane	635.1	1839000	0.0006855	0.403
62199-21-7	2,2,6,7-tetramethyloctane	639.52	1834000	0.0006845	0.432
62199-22-8	2,3,3,4-tetramethyloctane	653.29	1834000	0.0006845	0.432
62199-23-9	2,3,3,5-tetramethyloctane	643.65	1834000	0.0006845	0.432
62199-24-0	2,3,3,6-tetramethyloctane	646.41	1834000	0.0006845	0.432
62199-25-1	2,3,3,7-tetramethyloctane	646.41	1834000	0.0006845	0.432
62199-26-2	2,3,4,4-tetramethyloctane	646.41	1834000	0.0006845	0.432
62199-27-3	2,3,4,5-tetramethyloctane	643.97	1829000	0.0006835	0.462
62199-28-4	2,3,4,6-tetramethyloctane	641.23	1829000	0.0006835	0.462
62199-29-5	2,3,4,7-tetramethyloctane	639.86	1829000	0.0006835	0.462
62199-30-8	2,3,5,5-tetramethyloctane	645.03	1834000	0.0006845	0.432
62199-31-9	2,3,5,6-tetramethyloctane	641.23	1829000	0.0006835	0.462
62199-32-0	2,3,5,7-tetramethyloctane	634.39	1829000	0.0006835	0.462
62199-33-1	2,3,6,6-tetramethyloctane	642.27	1834000	0.0006845	0.432
62199-34-2	2,4,4,5-tetramethyloctane	639.52	1834000	0.0006845	0.432
62199-35-3	2,4,4,6-tetramethyloctane	631.25	1834000	0.0006845	0.432
62199-36-4	2,4,5,5-tetramethyloctane	640.89	1834000	0.0006845	0.432
62199-37-5	2,4,5,6-tetramethyloctane	639.86	1829000	0.0006835	0.462
62199-38-6	2,4,6,6-tetramethyloctane	634	1834000	0.0006845	0.432
62199-39-7	2,5,5,6-tetramethyloctane	643.65	1834000	0.0006845	0.432
62199-40-0	2,5,6,6-tetramethyloctane	646.41	1834000	0.0006845	0.432
62199-41-1	3,3,4,4-tetramethyloctane	658.66	1839000	0.0006855	0.403
62199-42-2	3,3,4,5-tetramethyloctane	649.16	1834000	0.0006845	0.432
62199-43-3	3,3,4,6-tetramethyloctane	646.41	1834000	0.0006845	0.432
62199-44-4	3,3,5,5-tetramethyloctane	651.73	1839000	0.0006855	0.403
62199-45-5	3,3,5,6-tetramethyloctane	642.27	1834000	0.0006845	0.432
62199-46-6	3,3,6,6-tetramethyloctane	641.61	1839000	0.0006855	0.403
62199-47-7	3,4,4,5-tetramethyloctane	653.29	1834000	0.0006845	0.432
62199-61-5	2,2,4,4,5-pentamethylheptane	654.48	1852000	0.0006795	0.375
62199-62-6	2,2,4,4,6-pentamethylheptane	639.98	1852000	0.0006795	0.375
62199-63-7	2,2,4,5,5-pentamethylheptane	640.53	1852000	0.0006795	0.375
62199-64-8	2,2,4,5,6-pentamethylheptane	635.15	1847000	0.0006785	0.404
62199-65-9	2,2,5,5,6-pentamethylheptane	640.53	1852000	0.0006795	0.375
62199-66-0	2,3,3,4,4-pentamethylheptane	664.25	1852000	0.0006795	0.375
62199-67-1	2,3,3,4,5-pentamethylheptane	655.95	1847000	0.0006785	0.404
62199-68-2	2,3,3,4,6-pentamethylheptane	649.01	1847000	0.0006785	0.404
62199-69-3	2,3,3,5,5-pentamethylheptane	660.06	1852000	0.0006795	0.375
62199-70-6	2,3,4,4,5-pentamethylheptane	655.95	1847000	0.0006785	0.404
62199-71-7	2,3,4,4,6-pentamethylheptane	642.08	1847000	0.0006785	0.404
62199-72-8	2,3,4,5,5-pentamethylheptane	651.79	1847000	0.0006785	0.404
62199-73-9	2,4,4,5,5-pentamethylheptane	654.48	1852000	0.0006795	0.375
62199-74-0	3,3,4,4,5-pentamethylheptane	668.43	1852000	0.0006795	0.375
62199-75-1	3,3,4,5,5-pentamethylheptane	672.62	1852000	0.0006795	0.375
62199-76-2	2,2-dimethyl-3-tert-butylhexane	654.48	1852000	0.0006795	0.375
62199-77-3	2-methyl-3-ethyl-3-isopropylhexane	648.03	1822000	0.0006905	0.461
62199-78-4	2-methyl-4-ethyl-3-isopropylhexane	630.72	1817000	0.0006895	0.491
62199-79-5	2,2,3-trimethyl-3-isopropylhexane	661.46	1852000	0.0006795	0.375
62199-80-8	2,2,4-trimethyl-3-isopropylhexane	640.7	1847000	0.0006785	0.404
62199-81-9	2,2,5-trimethyl-3-isopropylhexane	628.22	1847000	0.0006785	0.404
62199-82-0	2,2,5-trimethyl-4-isopropylhexane	628.22	1847000	0.0006785	0.404
62199-83-1	2,3,4-trimethyl-3-isopropylhexane	661.49	1847000	0.0006785	0.404
62199-84-2	2,3,5-trimethyl-3-isopropylhexane	647.63	1847000	0.0006785	0.404
62199-85-3	2,3,5-trimethyl-4-isopropylhexane	638.19	1842000	0.0006775	0.434
62199-86-4	2,4,4-trimethyl-3-isopropylhexane	644.85	1847000	0.0006785	0.404
62199-87-5	3,3,4-triethylhexane	656.25	1822000	0.0006905	0.461
62199-88-6	2,2-dimethyl,3,3-diethylhexane	655.89	1839000	0.0006855	0.403
62199-89-7	2,2-dimethyl-3,4-diethylhexane	638.14	1834000	0.0006845	0.432
622-38-8	(1-thiapropyl)-benzene	712.96	3727000	0.0004295	0.372
622-39-9	2-propylpyridine	653	3330000	0.000417	0.376
622-45-7	cyclohexyl acetate	648	3120000	0.000436	0.421
622-57-1	N-ethyl-4-methylaniline	705.58	3284000	0.000482	0.413
622-63-9	4-methyl-(1-thiapropyl)-benzene	719.2	3269000	0.0004855	0.416
622-80-0	N-propylaniline	705.58	3284000	0.000482	0.413
622-93-5	3-(diethylamino)-1-propanol	716	3300000	0.0004683	
622-96-8	p-ethyltoluene	640.2	3230000	0.000427	0.367
622-97-9	p-methylstyrene	665	3360000	0.000431	0.318
6221-93-8	dodecyl propanoate	733.1	1300000	0.000925	1.163
6221-95-0	tetradecyl propanoate	754.8	1140000	0.001041	
6221-96-1	hexadecyl propanoate	773.5	1000000	0.001157	
6221-98-3	tetradecyl butanoate	764.2	1070000	0.001099	
6221-99-4	hexadecyl butanoate	781.8	950000	0.001215	
62211-85-2	4,5,6-trimethylnonane	641.61	1817000	0.0006895	0.491
62212-28-6	3,4-dimethyl-3-ethyloctane	648.03	1822000	0.0006905	0.461
6223-78-5	2,5-dichloro-2,5-dimethylhexane	672.06	2375000	0.0005755	0.485
623-08-5	N,4-dimethylaniline	695.58	3684000	0.000432	0.433
623-13-2	4-methyl-(1-thiaethyl)-benzene	729.78	3660000	0.0004295	0.371
623-25-6	1,4-bis(chloromethyl)benzene	735	3300000	0.000446	
623-27-8	1,4-benzenedicarboxaldehyde	739	3670000	0.000383	0.583
623-34-7	1,4-dichloro-2-methylbutane	617.7	3214000	0.0004075	0.352
623-36-9	2-methyl-2-pentenal	605	3260000	0.000355	0.349
623-37-0	3-hexanol	579.3	3310000	0.000384	0.558
623-42-7	methyl butanoate	554.5	3473000	0.00034	0.378
623-43-8	methyl trans-2-butenoate	555.5	3680000	0.000323	0.355
623-55-2	5-methyl-3-hexanol	577.32	3149000	0.0004345	0.731
623-56-3	5-methyl-3-hexanone	588.11	3022000	0.0004275	0.451
623-70-1	ethyl trans-2-butenoate	569	3250000	0.000376	0.434
623-81-4	diethyl sulfite	624	3770000	0.000373	0.507
623-93-8	5-nonanol	620.93	2546000	0.0005525	0.846
6236-88-0	1-methyl-trans-4-ethylcyclohexane	620.1	2741000	0.0004715	0.305
624-08-8	9-heptadecanol	767.2	1410000	0.000974	0.798
624-09-9	heptyl heptanoate	695	1660000	0.0008142	
624-13-5	propyl octanoate	652	2047000	0.0006587	0.639
624-16-8	4-decanone	656.59	2236000	0.0006015	0.612
624-20-4	1,2-dibromohexane	684.21	3682000	0.0004895	0.526
624-22-6	2-methyl-1-hexanol	595	3030000	0.000432	0.773
624-24-8	methyl pentanoate	572.95	3070000	0.0004	0.412
624-29-3	cis-1,4-dimethylcyclohexane	598.15	2938000	0.00046	0.231
624-41-9	2-methylbutyl acetate	589	2810000	0.000442	0.459
624-42-0	6-methyl-3-heptanone	624	2640000	0.000469	0.528
624-48-6	dimethyl maleate	675	3220000	0.000403	0.562
624-51-1	3-nonanol	620.4	2546000	0.0005525	0.846
624-54-4	pentyl propanoate	617.8	2340000	0.000519	0.474
624-64-6	trans-2-butene	428.63	4102000	0.0002382	0.218
624-65-7	propargyl chloride	541	5300000	0.000211	0.152
624-72-6	1,2-difluoroethane	445	4340000	0.000195	0.222
624-73-7	1,2-diiodoethane	749.91	4730000	0.0003235	0.223
624-78-2	methylethylamine	475	4460000	0.000235	0.319
624-79-3	ethyl isocyanide	535.33	4266000	0.0002295	0.338
624-82-8	N-hydroxymethanimidamide	705	9050000	0.000218	
624-83-9	methyl isocyanate	505	5190000	0.00019	0.175
624-89-5	2-thiabutane	533	4260000	0.000254	0.209
624-92-0	dimethyl disulfide	615	5360000	0.000252	0.206
624-95-3	3,3-dimethyl-1-butanol	587.6	3520000	0.000376	0.609
624-96-4	1,3-dichloro-3-methylbutane	627.97	3254000	0.0004025	0.291
624-97-5	2-methyl-4-penteN-2-ol	587	3900000	0.0003038	
6240-90-0	(R)-2-heptylamine	565.35	2919000	0.0004593	0.409
62417-08-7	2,6-dimethyl-1-octanol	635.71	2334000	0.0006025	0.852
62496-53-1	1,5-dichloro-3,3-dimethylpentane	654.02	2614000	0.0005195	0.442
625-06-9	2,4-dimethyl-2-pentanol	563.54	3188000	0.0004295	0.662
625-16-1	1,1-dimethylpropyl acetate	572	2870000	0.000439	0.419
625-22-9	dibutyl sulfate	814	6000000	0.000609	0.345
625-23-0	2-methyl-2-hexanol	573.58	3160000	0.0004355	0.695
625-25-2	2-methyl-2-heptanol	583.83	2844000	0.0004915	0.738
625-27-4	2-methyl-2-pentene	514	3160000	0.000363	0.245
625-28-5	3-methylbutanenitrile	593.3	3400000	0.0003355	0.397
625-29-6	2-chloropentane	555.88	3353000	0.0003585	0.299
625-30-9	1-methylbutylamine	534.9	3490000	0.000347	0.419
625-31-0	1-methyl-3-buteN-1-ol	573	4550000	0.0002584	
625-33-2	3-penteN-2-one	575	4360000	0.000303	
625-38-7	vinylacetic acid	669.69	4541000	0.0002665	0.381
625-43-4	methyl-tert-butylamine	513.2	3560000	0.000346	0.378
625-44-5	methyl isobutyl ether	497	3410000	0.000329	0.31
625-45-6	methoxyacetic acid	691	4980000	0.000251	0.625
625-54-7	ethyl isopropyl ether	489	3410000	0.000329	0.306
625-55-8	isopropyl formate	518.5	3890000	0.000282	0.313
625-60-5	s-ethyl thioacetate	590.55	4075000	0.000319	0.31
625-65-0	2,4-dimethyl-2-pentene	533.21	3002000	0.0004025	0.278
625-66-1	1,1-dichloro-3-methylbutane	600.06	3243000	0.0004015	0.323
625-67-2	2,4-dichloropentane	628.96	3243000	0.0004015	0.323
625-69-4	2,4-pentanediol	629	4330000	0.000325	1.122
625-74-1	1-nitro-2-methylpropane	609	3500000	0.000336	0.415
625-80-9	diisopropyl sulfide	585.71	3225000	0.0004135	0.316
625-82-1	2,4-dimethylpyrrole	630	4400000	0.0003125	
625-84-3	2,5-dimethylpyrrole	630	4400000	0.0003125	
625-86-5	2,5-dimethylfuran	557.13	4173000	0.0003065	0.332
625-96-7	3-methylcyclohexanone, (±)	650	3550000	0.0003776	
62521-69-1	1,2,3-trichloro-2-methylbutane	635.09	3121000	0.0004515	0.345
626-16-4	1,3-bis(chloromethyl)benzene	735	3300000	0.000446	
626-21-1	2,4-diethylpyridine	673	3000000	0.0004694	
626-23-3	di-sec-butylamine	601.45	2652000	0.0005176	0.5
626-26-6	di-sec-butyl sulfide	658.04	2559000	0.0005375	0.447
626-33-5	2-methyl-4-heptanone	624	2640000	0.000469	0.528
626-38-0	1-methylbutyl acetate	579	2810000	0.000442	0.459
626-77-7	propyl hexanoate	629	2330000	0.000547	0.596
626-82-4	butyl hexanoate	637	2200000	0.0006	0.579
626-87-9	1,4-dibromopentane	694.92	4152000	0.0004335	0.48
626-88-0	1-bromo-4-methylpentane	616.55	3392000	0.0004275	0.404
626-89-1	4-methyl-1-pentanol	603.5	3630000	0.00038	0.591
626-91-5	methyl 3-methylbutyl ether	533.65	3076000	0.0003835	0.359
626-92-6	1,4-dichloropentane	643.04	3214000	0.0004075	0.352
626-93-7	2-hexanol	585.9	3310000	0.000384	0.556
626-94-8	1-methyl-4-penteN-1-ol	587	3900000	0.0003038	
626-95-9	1,4-pentanediol	657.63	4409000	0.0003475	1.179
6261-19-4	1-chloro-cis2-pentene	577.85	3530000	0.0003445	0.296
6261-25-2	1-chloro-trans-2-pentene	579.36	3530000	0.0003445	0.296
6262-87-9	2-isopropylbenzenethiol	740	3500000	0.0004719	
6263-62-3	[(ethylthio)methyl]benzene	740	3500000	0.0004719	
62689-51-4	1-dimethylamino-2-propylamine	637.67	4210000	0.000358	0.591
6269-92-7	1,2-dibromooctane	716.02	2954000	0.0006015	0.616
627-02-1	ethyl isobutyl ether	520.57	3076000	0.0003835	0.359
627-05-4	1-nitrobutane	623	3760000	0.000341	0.455
627-08-7	propyl isopropyl ether	518.96	3076000	0.0003835	0.359
627-19-0	1-pentyne	481.2	4170000	0.000277	0.29
627-20-3	cis-2-pentene	475.93	3654000	0.0003021	0.241
627-21-4	2-pentyne	519	4030000	0.000276	0.175
627-22-5	1-chloro-1,3-butadiene	525	4260000	0.000273	0.193
627-26-9	trans-crotonitrile	586	3880000	0.000282	0.398
627-27-0	3-buteN-1-ol	559	5220000	0.0002232	
627-31-6	1,3-diiodopropane	766.97	4162000	0.0003795	0.273
627-35-0	methyl-propylamine	500	3950000	0.00029	0.404
627-36-1	propyl isocyanide	554.09	3778000	0.0002855	0.383
627-40-7	3-methoxy-1-propene	475.15	4073000	0.000263	0.266
627-45-2	N-ethylformamide	647	4420000	0.000267	0.376
627-58-7	2,5-dimethyl-1,5-hexadiene	567	2740000	0.000445	0.324
627-59-8	5-methyl-2-hexanol	581.44	3149000	0.0004345	0.731
627-67-8	1-nitro-3-methylbutane	630	3200000	0.000387	0.458
627-88-3	isopentyl stearate	798	1060000	0.0012232	
627-90-7	ethyl undecanoate	682	1740000	0.000776	0.759
627-96-3	1,5-dibromohexane	684.21	3682000	0.0004895	0.526
627-97-4	2-methyl-2-heptene	575.22	2687000	0.0004645	0.351
627-98-5	5-methyl-1-hexanol	605	3030000	0.000432	0.781
62706-16-5	1-chloro-3-hexene	583.61	3160000	0.0004005	0.341
628-00-2	2-heptanethiol	632	2800000	0.000472	0.388
628-04-6	ethyl isopentyl ether	558.21	2829000	0.0004285	0.307
628-05-7	1-nitropentane	641.43	3518000	0.0003975	0.51
628-08-0	2-buteN-1-yl acetate	569	3250000	0.000376	0.434
628-17-1	1-iodopentane	601.41	4036000	0.0003345	0.728
628-21-7	1,4-diiodobutane	720.71	3691000	0.0004355	0.317
628-28-4	methyl butyl ether	512.74	3371000	0.000329	0.313