CASRN	Chemical	Tc	Pc	Vc	omega
29072-93-3	2-methyl-2-propoxypropane	558.21	2829000	0.0004285	0.307
2909-77-5	2,6-diisopropyl-N,N-dimethylaniline	730	2100000	0.0007559	
2909-79-7	4-tert-butyl-N,N-dimethylaniline	710	2500000	0.0006269	
291-64-5	cycloheptane	604.2	3820000	0.000353	0.241
29136-19-4	nonadecylbenzene	841.84	926000	0.0013275	0.778
29138-91-8	1-octyl-[1,2,3,4-tetrahydronaphthalene]	797.31	1632000	0.0008845	0.669
2917-26-2	1-hexadecanethiol	774.68	1382000	0.0009855	0.763
2918-13-0	1-hepteN-3-one	615	3560000	0.0003913	
292-64-8	cyclooctane	647.2	3560000	0.00041	0.252
2922-51-2	2-heptadecanone	745.97	1287000	0.0009935	0.827
29281-39-8	tert-pentyl vinyl ether	561	2900000	0.0004032	
293-55-0	cyclononane	682	3344000	0.000457	0.281
293-96-9	cyclodecane	709	3040000	0.000506	0.292
29316-05-0	sec-pentylbenzene	678.03	2602000	0.0005401	0.42
2934-05-6	2,4-bis(1-methylethyl)phenol	755.67	2747000	0.0005987	0.59
29342-44-7	2-chloro-2,5-dimethylhexane	642.41	2443000	0.0005325	0.462
2935-44-6	2,5-hexanediol	648.79	3936000	0.0003975	1.179
29369-63-9	methyltetradecylamine	722.7	1440000	0.000895	0.792
2938-98-9	2-methyl-1,4-butanediol	615.82	4456000	0.0003415	1.142
29387-86-8	propylene glycol butyl ether, isomers	618	2940000	0.0004606	
29394-58-9	1-iodo-2-methylbutane	589.91	4078000	0.0003285	0.694
294-41-7	cycloundecane	728.78	2738000	0.0005455	0.298
294-62-2	cyclododecane	747.23	2546000	0.0005935	0.313
294-65-5	thiacyclododecane	796.44	2794000	0.0005835	0.314
29443-50-3	2,2-diiodobutane	735.41	3778000	0.0004245	0.227
29472-95-5	5-methyl-2-sec-butylphenol	751	2980000	0.000546	0.569
29488-27-5	3-isopropylthiophene	652.61	3820000	0.0003815	0.312
295-02-3	cyclotridecane	764.06	2373000	0.0006415	0.328
295-05-6	thiacyclotridecane	808.34	2595000	0.0006315	0.329
295-17-0	cyclotetradecane	777.91	2217000	0.0006895	0.343
295-20-5	thiacyclotetradecane	818.79	2417000	0.0006795	0.344
295-48-7	cyclopentadecane	791.72	2076000	0.0007375	0.357
295-51-2	thiacyclopentadecane	827.84	2257000	0.0007275	0.359
295-65-8	cyclohexadecane	804.08	1948000	0.0007855	0.371
295-68-1	thiacyclohexadecane	836.95	2112000	0.0007755	0.373
295-97-6	cycloheptadecane	815.06	1831000	0.0008335	0.385
29559-52-2	1,1,2-trichloro-2-methylpropane	635.65	3518000	0.0003895	0.271
29559-54-4	1,1-dichloro-2,2-dimethylpropane	633.42	3284000	0.0003965	0.262
29559-55-5	1,3-dichloro-2,2-dimethylpropane	629.69	3254000	0.0004025	0.291
29576-14-5	1-bromo-trans-2-butene	581.68	4559000	0.0003015	0.312
29590-42-9	isooctyl acrylate	672	2250000	0.0005784	
296-00-4	thiacycloheptadecane	844.72	1981000	0.0008235	0.387
296-18-4	cyclooctadecane	824.69	1725000	0.0008815	0.399
296-21-9	thiacyclooctadecane	852.59	1861000	0.0008715	0.401
296-44-6	cyclononadecane	834.39	1627000	0.0009295	0.412
296-47-9	thiacyclononadecane	859.18	1752000	0.0009195	0.415
296-56-0	cycloeicosane	842.81	1538000	0.0009775	0.424
29662-90-6	2,2-dimethyloctanoic acid	713	2250000	0.0006	0.877
29664-53-7	methylpentadecylamine	734.3	1340000	0.00095	0.814
29703-52-4	2-eicosanone	773.72	1058000	0.0011615	0.84
29772-40-5	2,2,3-trimethyl-3-heptanol	616.23	2384000	0.0005925	0.724
29780-00-5	methyl 12-tridecenoate	738	1800000	0.0007738	
2979-19-3	3,3-dimethylcyclohexanone	670	3250000	0.0004217	
2980-69-0	4-methylundecane	649.36	1792000	0.0007015	0.548
2980-71-4	2-methyl-1-nonene	616	2190000	0.000553	0.453
29806-73-3	octyl palmitate	815	1010000	0.0012714	
2983-37-1	ethyl 2-ethylhexanoate	637	2200000	0.0006	0.579
29833-69-0	2-methyl-1-pentadecene	718.92	1365000	0.0009135	0.673
29843-58-1	1,4-dichloro-2-methyl-2-butene	660	3500000	0.000376	
29843-62-7	2-methyl-5-nonanol	634.39	2334000	0.0006025	0.852
2987-16-8	3,3-dimethylbutanal	558.82	3456000	0.0003775	0.37
29882-57-3	2-chloropentane, (+)	556.69	3367000	0.0003557	0.283
29887-11-4	2-ethyl-1,3-pentanediol	645.6	3420000	0.0004685	1.211
29911-27-1	di(propylene glycol) propyl ether, isomers	629	2400000	0.000578	0.963
29916-45-8	1,2-dibromo-2,3-dimethylbutane	684.21	3682000	0.0004895	0.526
29964-84-9	isodecyl methacrylate	738	1800000	0.0007738	
29972-79-0	methyl 11-dodecenoate	716	1900000	0.0007174	
300-57-2	2-propenylbenzene	640.92	3424000	0.0004125	0.332
3001-66-9	2-octanethiol	653	2500000	0.000527	0.423
3002-57-1	dimethylheptadecylamine	770.6	1040000	0.001115	0.749
3004-93-1	2-methyloctanoic acid	694	2540000	0.000572	0.791
3007-31-6	didodecylamine	827.88	812000	0.0014145	0.732
30090-17-6	4-isobutylaniline	690	2985000	0.0005255	0.69
30122-12-4	1,3-dichloropentane	632.7	3214000	0.0004075	0.352
30136-13-1	N-propoxypropanol (mixed isomers)	600	3240000	0.0004073	0.817
3017-23-0	deuterium cyanide	482.63	11356000	0.00009681	0.435
3017-67-2	2-bromo-1-decene	683.71	2363000	0.0006375	0.579
3017-68-3	2-bromo-cis2-butene	557.88	4590000	0.0003025	0.286
3017-69-4	1-bromo-2-methyl-1-propene	565.96	4590000	0.0003025	0.286
3017-70-7	2-bromo-3-methyl-2-butene	598.09	4073000	0.0003595	0.305
3017-71-8	2-bromo-trans-2-butene	571.87	4590000	0.0003025	0.286
3019-20-3	isopropyl phenyl sulfide	708.21	3357000	0.0004795	0.386
302-01-2	hydrazine	653.15	14700000	0.000158	0.3142
30207-98-8	undecanol	696.85	2130000	0.0006505	0.596
30213-29-7	3,cis-5-dimethylcyclopentene	557.42	3432000	0.0003535	0.245
30273-11-1	4-sec-butylaniline	690	2985000	0.0005255	0.69
3031-05-8	1,2,6-trimethylnaphthalene	779.72	2671000	0.0005775	0.492
3031-08-1	1,3,6-trimethylnaphthalene	779.72	2671000	0.0005775	0.492
3031-15-0	1,2,3,4-tetramethylnaphthalene	810.54	2389000	0.0006335	0.535
3031-16-1	1,2,5,8-tetramethylnaphthalene	810.54	2389000	0.0006335	0.535
30310-22-6	2-bromo-4-methylpentane	597.83	3424000	0.0004215	0.373
30316-17-7	1,2,3,4-tetrahydro-2,5,8-trimethylnaphthalene	749.21	2513000	0.0006045	0.468
3035-75-4	2,2,4,10,12,12-hexamethyl-7-(3,5,5-trimethylhexyl)tridecane	864.27	655000	0.0016856	
30388-40-0	3-methyl-4-propylphenol	762.45	3376000	0.0004215	0.541
3042-50-0	1,4-dimethyl-2-propylbenzene	677.57	2569000	0.0005435	0.441
30427-51-1	diethyloctadecylamine	769.24	923000	0.0013055	0.79
3043-33-2	2-methyl-2,3-pentadiene	534.09	3695000	0.0003325	0.229
3048-64-4	5-vinyl-2-norbornene, endo and exo	626	3210000	0.000427	0.249
3054-92-0	2,3,4-trimethyl-3-pentanol	591.06	2894000	0.0004795	0.674
30540-31-9	1-bromo-2,3-dimethylbutane	616.11	3436000	0.0004225	0.341
3055-14-9	1-methyl-3,5-diisopropylbenzene	714	2180000	0.000648	0.529
30586-10-8	dichloropentane	622.42	3241000	0.0004037	0.318
306-83-2	2,2-dichloro-1,1,1-trifluoroethane	456.94	3676000	0.000278	0.282
30673-60-0	propyl decanoate	682	1740000	0.000776	0.759
3068-00-6	1,2,4-butanetriol	697	5760000	0.000311	1.796
3070-53-9	1,6-heptadiene	556	3450000	0.0003478	
3071-00-9	dieicosylamine	1093.64	393000	0.0023105	
3073-66-3	1,1,3-trimethylcyclohexane	612.06	2875000	0.0004695	0.267
3073-92-5	1-propoxy-butane	558.21	2829000	0.0004285	0.307
3074-61-1	1-propylcyclopentene	602.71	3192000	0.0004105	0.315
3074-64-4	2,3-dimethyl-2-heptene	593.62	2372000	0.0005248	0.411
3074-71-3	2,3-dimethylheptane	589.6	2401000	0.000515	0.385
3074-75-7	4-ethyl-2-methylhexane	580	2401000	0.000504	0.386
3074-76-8	3-ethyl-3-methylhexane	597.5	2553000	0.000487	0.352
3074-77-9	3-ethyl-4-methylhexane	593.7	2513000	0.00049	0.372
30749-25-8	3-isobutylphenol	733	3468000	0.0004155	0.51
30899-19-5	pentanol	562.34	3890000	0.0003269	0.577
30937-52-1	rhenium (V) fluoride	774.1			
30951-88-3	diethylhexadecylamine	746.71	1041000	0.0011935	0.812
3102-33-8	trans-3-penteN-2-one	575	4360000	0.0003052	
31032-94-7	2-methyl-3-ethylnaphthalene	776.44	2713000	0.0005775	0.488
31080-39-4	2-propylheptanoic acid	713	2250000	0.0006	0.877
31087-44-2	(R)-(-)-2-pentanol	562.34	3890000	0.0003269	0.577
3121-79-7	4,4-dimethyl-1-pentanol	597.3	3160000	0.0004355	0.695
3121-82-2	2,2-dimethyl-1,5-pentanediol	644.63	3514000	0.0004545	1.175
3121-83-3	2-butyl-2-methyl-1,3-propanediol	692.04	3100000	0.000517	1.28
31241-42-6	1-nitrotetradecane	762.2	1538000	0.0009015	0.851
31283-43-9	2-chloro-1-octene	640.48	2574000	0.0005125	0.43
31294-91-4	3-iodohexane	610.59	3620000	0.0003845	0.739
31294-92-5	3-iodoheptane	646.56	3206000	0.0004465	0.816
31294-93-6	4-iodoheptane	646.56	3206000	0.0004465	0.816
31294-94-7	1-iodo-2-methylpentane	610.59	3620000	0.0003845	0.739
31294-95-8	2-iodo-2-methylpentane	597.98	3669000	0.0003795	0.668
31294-96-9	2-iodo-4-methylpentane	599.13	3655000	0.0003785	0.705
31294-97-0	3-iodo-2-methylpentane	597.44	3655000	0.0003785	0.705
31294-98-1	1-iodo-2,2-dimethylbutane	594.3	3620000	0.0003845	0.739
31295-00-8	1-iodo-2,3-dimethylbutane	614.19	3669000	0.0003795	0.668
3133-01-5	1-tricosanol	821.6	1040000	0.0012927	
31366-00-4	1,2,3-trimethyl-5-ethylbenzene	693.04	2530000	0.0005435	0.441
31367-46-1	3-methyl-2-heptanol	593.34	2835000	0.0004905	0.773
3142-72-1	2-methyl-2-pentenoic acid	696	3300000	0.0003894	
31501-11-8	cis-3-hexenyl caproate	694	2150000	0.0006198	
31508-08-4	6,6-dimethyl-1-hepteN-4-yne	595	3000000	0.0004248	
31508-12-0	1-noneN-4-yne	595	3000000	0.0004248	
3155-43-9	1,18-octadecanediol	837.63	1311000	0.0010815	1.13
31576-40-6	osmium (V) fluoride	939.36			
3162-62-7	1,1-dichlorodecane	704.32	1986000	0.0006875	0.57
31642-67-8	8-nonenoic acid	756	2500000	0.0005459	
31703-09-0	trisulfur dichloride	489.74	3576000	0.00029829	
31720-69-1	1,2,2-trimethylcyclohexanol	655	3390000	0.0004788	
3173-53-3	cyclohexyl isocyanate	633	3470000	0.000408	0.525
3173-72-6	1,5-diisocyanatonaphthalene	818	2720000	0.000635	0.73
3174-67-2	1,3-pentanediol	653.86	4409000	0.0003475	1.179
3175-23-3	1,2,2-trichloropropane	611.68	3916000	0.0003395	0.256
31772-05-1	1,13-dibromotridecane	777.32	1858000	0.0008815	0.813
3178-22-1	tert-butylcyclohexane	667	2570000	0.000534	0.274
3178-23-2	dicyclohexylmethane	749.48	2366000	0.0006295	0.385
3178-24-3	1,3-dicyclohexylpropane	766.86	1979000	0.0007415	0.471
3178-29-8	4-propylheptane	601	2178000	0.000545	0.444
3179-47-3	decyl methacrylate	738	1800000	0.0007738	
3179-63-3	3-(dimethylamino)-1-propanol	626.41	3790000	0.000368	0.841
3180-09-4	2-butylphenol	713.69	3436000	0.0004215	0.542
31805-48-8	3-methyl-2-ethylthiophene	652	3713000	0.0003875	0.342
31841-77-7	5,5-dimethyl-2-hexanol	599.88	2869000	0.0004855	0.706
31844-95-8	2-bromo-1-pentene	576.34	3996000	0.0003595	0.341
31844-96-9	2-bromo-3-methyl-1-butene	570.77	4036000	0.0003535	0.311
31849-75-9	cis-1-bromo-1-pentene	584.97	4021000	0.0003575	0.357
31849-76-0	trans-1-bromo-1-pentene	584.97	4021000	0.0003575	0.357
31849-78-2	cis-1-bromo-1-butene	554.15	4559000	0.0003015	0.312
3195-86-6	2-ethylthiacyclopropane	594.72	4578000	0.0002625	0.244
31950-55-7	4-bromo-3-methyl-1-butene	569.74	4011000	0.0003525	0.337
31950-56-8	4-bromo-1-pentene	581.77	4011000	0.0003525	0.337
320-60-5	2,4-dichlorobenzotrifluoride	646	2810000	0.000443	0.434
32018-76-1	2,5-dimethyl-4-ethylphenol	711.68	3318000	0.0004215	0.54
32064-78-1	7-methyl-5-octeN-4-one	655	2860000	0.0005112	
3208-16-0	2-ethylfuran	557.25	4255000	0.0003065	0.333
32114-79-7	2-methyl-1-isopropylnaphthalene	817.54	2480000	0.0006275	0.507
3218-02-8	cyclohexanemethanamine	622	3490000	0.000393	0.386
3221-61-2	2-methyloctane	582.8	2310000	0.000541	0.458
3226-32-2	2-hexylphenol	755.67	2747000	0.0005987	0.59
3228-01-1	3-methyl-2-propylphenol	762.45	3376000	0.0004215	0.541
3228-02-2	3-methyl-4-isopropylphenol	732.05	3408000	0.0004155	0.509
3228-03-3	3-methyl-5-isopropylphenol	738.01	3408000	0.0004155	0.509
3228-04-4	2-methyl-6-isopropylphenol	746.4	3408000	0.0004155	0.509
3228-99-7	2,2-bis(chloromethyl)-1,3-dichloropropane	725	3200000	0.0004907	
32321-65-6	zirconium telluride	1592.9	41815000	0.00008298	
3234-49-9	1,2-dibromopentane	671.42	4152000	0.0004335	0.48
32341-91-6	3-methyl-1,1-diphenylethane	786.32	2493000	0.0006535	0.491
32341-92-7	2-methyl-1,1-diphenylethane	787.73	2493000	0.0006535	0.491
32367-54-7	2-ethyl-[1,2,3,4-tetrahydronaphthalene]	739.79	2773000	0.0005485	0.424
3238-38-8	2,3,4,6-tetramethylphenol	743.7	3262000	0.0004215	0.538
3238-75-3	2-(dipropylamino)ethanol	741	3100000	0.000512	
3240-09-3	5-methyl-5-hexeN-2-one	615	3560000	0.0003913	
32442-47-0	2-iodo-3-methyl-1-butene	619.84	3607000	0.0003795	0.242
32444-34-1	3-methyl-2-ethyl-1-butanol	596.52	3149000	0.0004345	0.731
32620-08-9	trans-1-bromo-1-butene	567.34	4559000	0.0003015	0.312
32665-23-9	isopropyl isopentanoate	599.25	2513000	0.000499	0.472
3268-49-3	3-(methylthio)propanal	650	4020000	0.000314	0.417
3274-28-0	2-propylhexanoic acid	703	2450000	0.000547	0.831
3274-29-1	2-ethylheptanoic acid	703	2450000	0.000547	0.831
32764-34-4	6-methyl-3-heptyl acetate	650.6	2080000	0.0006175	0.574
32768-54-0	2,3-dichlorotoluene	710	3620000	0.000404	0.343
32812-23-0	2,2-dimethyl-1,4-butanediol	636.35	3991000	0.0003925	1.105
32814-16-7	cis-1-fluoro-1-octene	548.71	2553000	0.0004815	0.429
32814-17-8	trans-1-fluoro-1-octene	548.71	2553000	0.0004815	0.429
3290-06-0	1,3-dichloro-5-(chloromethyl)benzene	737	3340000	0.000447	0.26
32970-37-9	3,4-dimethyltetrahydrofuran	581.14	3647000	0.0003325	0.282
3302-10-1	3,5,5-trimethylhexanoic acid	703	2450000	0.000547	0.831
3302-16-7	3,3-dimethylbutanenitrile	598.54	3086000	0.0003865	0.379
33021-02-2	tert-butyl isobutyl ether	563.33	2507000	0.0004893	0.415
33083-83-9	5-undecanone	678.01	2046000	0.0006575	0.653
33189-72-9	trans-tetradec-11-eN-1-yl acetate	782	1600000	0.0009064	
3321-50-4	1,2-dicyclohexylethane	762.12	2159000	0.0006855	0.429
33228-44-3	4-pentylaniline	700	2750000	0.0005661	
33228-45-4	4-hexylaniline	710	2500000	0.0006269	
33234-93-4	7-methyl-1-nonanol	638.09	2316000	0.0006085	0.883
3329-48-4	3,5-dimethyl-1-hexeN-3-ol	615	3100000	0.0003875	
334-48-5	decanoic acid	722.1	2250000	0.000608	0.806
334-49-6	trans-2-decenoic acid	776	2300000	0.0006008	
334-56-5	1-fluorodecane	623.1	1970000	0.000608	0.555
334-68-9	1-fluorododecane	658.6	1670000	0.000718	0.625
33425-49-9	1-nonyl-[1,2,3,4-tetrahydronaphthalene]	805.45	1513000	0.0009405	0.702
33429-72-0	4-chloro-2,2-dimethylpentane	621.08	2693000	0.0004765	0.418
3344-70-5	1,12-dibromododecane	766.37	2022000	0.0008255	0.779
33467-73-1	cis-3-hexenyl formate	592.33	2830000	0.000428	0.432
33467-74-2	cis-3-hexenyl propionate	628	2450000	0.0005048	
33467-76-4	trans-2-hepteN-1-ol	601	3500000	0.000341	
33553-93-4	2,4-dichloro-2,4-dimethylpentane	654.02	2614000	0.0005195	0.442
3360-16-5	N-isopropyl-1,3-propanediamine	663	3810000	0.0004084	0.65
33622-26-3	1-deceN-3-yne	615	2700000	0.000486	
33673-01-7	2-sec-butyl-1,3-propanediol	660.11	3501000	0.0004535	1.212
33693-78-6	1,1-dibromo-2-methylpropane	635.76	4769000	0.0003715	0.403
33698-87-2	cis-3-pentenoic acid	676	4057000	0.0003215	0.415
33758-16-6	(S)-(+)-2-decanol	629	2355000	0.000598	0.793
3377-86-4	2-bromohexane	612	3392000	0.0004275	0.404
3377-87-5	3-bromohexane	608.18	3392000	0.0004275	0.404
3377-92-2	vinyl pivalate	556	2950000	0.000423	0.391
338-64-7	1-chloro-1,2-difluoroethane	435.18	4277000	0.0002265	0.271
338-65-8	2-chloro-1,1-difluoroethane	477.91	4277000	0.000227	0.271
3386-33-2	1-chlorooctadecane	783.25	1124000	0.0010925	0.777
33877-11-1	α-methylbenzenemethanethiol, (S)	725.28	3830000	0.0004295	0.374
33879-72-0	3-methyl-1,3-pentanediol	637.26	3951000	0.0003985	1.14
3391-86-4	1-octeN-3-ol	615	3100000	0.0003875	
33933-77-6	7-methyl-4-octanol	606.35	2566000	0.0005465	0.814
33933-78-7	5-methyl-5-nonanol	637.32	2341000	0.0006035	0.819
33933-79-8	2,4-dimethyl-4-octanol	616.49	2359000	0.0005975	0.788
33943-21-4	2-methyl-4-ethyl-3-hexanol	605.43	2587000	0.0005405	0.782
33966-50-6	2-butanamine, (.+/-.)-	503.5	3945000	0.0002999	0.331
33968-46-6	1,2-tridecanediol	736.93	1934000	0.0007955	1.31
33968-47-7	1,2-pentadecanediol	766.08	1644000	0.0009075	1.267
33978-71-1	2-methyl-5-undecanol	712.9	1970000	0.0007045	0.635
34014-79-4	1,3-hexadecanediol	795.01	1523000	0.0009635	1.232
3404-57-7	6-methyl-3-heptene	564.74	2694000	0.0004588	0.328
3404-58-8	3-ethyl-1-hexene	556.24	2668000	0.0004585	0.357
3404-61-3	3-methyl-1-hexene	528	2950000	0.000398	0.306
3404-63-5	2-ethyl-1,3-butadiene	531.56	3440000	0.0003345	0.251
3404-67-9	3-methyl-2-ethyl-1-pentene	561.5	2682000	0.0004595	0.332
3404-71-5	2-ethyl-1-pentene	543	2950000	0.000398	0.307
3404-72-6	2,3-dimethyl-1-pentene	532.72	2970000	0.0004035	0.288
3404-73-7	3,3-dimethyl-1-pentene	527.74	2989000	0.0003975	0.253
3404-77-1	3,3-dimethyl-1-hexene	555.62	2699000	0.0004535	0.297
3404-78-2	2,5-dimethyl-2-hexene	564.45	2710000	0.0004585	0.322
3404-80-6	4-methyl-2-ethyl-1-pentene	559.75	2682000	0.0004595	0.332
3405-32-1	1,2,3,4-tetrachlorobutane	690	3400000	0.0004395	
3405-42-3	methyldipropylamine	556.46	2916000	0.0004655	0.437
3405-45-6	N-methyldibutylamine	617.4	2331000	0.0005709	0.567
34075-28-0	2-nitro-2,3-dimethylbutane	642.93	3247000	0.0004365	0.427
3419-66-7	1-tert-butyl-1-cyclohexene	640	2600000	0.000511	
3419-71-4	1,4,4-trimethylcyclohexene	620	2860000	0.0004518	
34238-52-3	3-chloro-2-pentene	561.69	3541000	0.0003432	0.275
34240-76-1	2-[isopentylamino]ethanol	716	3300000	0.0004683	
34263-68-8	4-methyl-1-hexylamine	565.35	2919000	0.0004593	0.409
34317-39-0	methyl-1,2-dimethylpropylamine	560.25	3181000	0.0004005	0.432
34338-96-0	(2S,5S)-2,5-hexanediol	649.93	3942000	0.0003969	1.16
34375-89-8	3-methylpyrrolidine	550	4200000	0.000298	0.227
34403-05-9	2-methyl-1,2-diphenylethane	793.78	2473000	0.0006595	0.522
34403-06-0	3-methyl-1,2-diphenylethane	792.39	2473000	0.0006595	0.522
3452-07-1	1-eicosene	771	1220000	0.00116	0.88
3452-09-3	1-nonyne	598.05	2610000	0.000497	0.471
3452-97-9	3,5,5-trimethyl-1-hexanol	627.63	2595000	0.0005415	0.748
3454-07-7	p-ethylstyrene	680.1	3019000	0.0004685	0.376
34566-04-6	(S)-2-aminooctane	601.45	2652000	0.0005176	0.5
34566-05-7	(R)-2-aminooctane	601.45	2652000	0.0005176	0.5
3457-57-6	1-nitro-2-methylbutane	628	3200000	0.000391	0.456
34570-59-7	1,1,2,2-tetrabromopropane	766.37	6910000	0.0004345	0.552
34581-76-5	1,1,2,3-tetrabromopropane	798.18	6785000	0.0004395	0.625
34590-94-8	dipropylene glycol monomethyl ether	612	2900000	0.0004666	0.88
34713-94-5	2-methyl-1-butanol, (±)	562.34	3890000	0.0003269	0.577
34715-98-5	1-nitro-2,2-dimethylpropane	614	3100000	0.000392	0.423
34719-63-6	1,2-heptadecanediol	797.59	1415000	0.0010195	1.188
34722-01-5	3-butylthiophene	665	3250000	0.0004332	
34786-24-8	3-methyl-(1-thiapropyl)-benzene	717.74	3269000	0.0004855	0.416
34840-79-4	2,3-dichloro-1,4-dimethylbenzene	735	3300000	0.000446	
34859-98-8	1,1-dimethylbutyl acetate	618	2540000	0.000494	0.54
34887-14-4	2,2-dichloropentane	601.15	3254000	0.0004025	0.291
34949-22-9	1,1-dimethylpropyl propanoate	589	2600000	0.000494	0.749
3495-46-3	3-amino-3-methylpentane	586.93	3388000	0.0003895	0.387
34994-81-5	1-iodoeicosane	833.96	1101000	0.0011745	0.969
350-50-5	(fluoromethyl)benzene	590.48	3815000	0.0003375	0.311
35008-86-7	3-hexenylbenzene	723	2550000	0.0005863	
35073-27-9	2-methylbutyl formate	577	3130000	0.000387	0.378
3508-00-7	1-bromoheptadecane	784.07	1293000	0.0010495	0.827
35153-15-2	cis-9-tetradeceN-1-ol	699	1600000	0.0007887	
35161-70-7	methylhexylamine	586.8	2860000	0.000455	0.509
35182-51-5	4-(1-ethylpropyl)pyridine	693	2700000	0.000535	
35194-37-7	4-heptenoic acid	716	2900000	0.0004518	
352-32-9	p-fluorotoluene	590.48	3815000	0.0003375	0.311
352-70-5	m-fluorotoluene	590.48	3815000	0.0003375	0.311
352-93-2	3-thiapentane	557.15	3960000	0.000318	0.29
3520-52-3	2-methyl-6-propylphenol	733.95	3376000	0.0004215	0.541
35205-71-1	3-methyl-3-hexenoic acid	716	2900000	0.0004518	
35205-79-9	3-methylnonanoic acid	713	2250000	0.0006	0.877
3521-91-3	1-hepteN-4-ol	601	3500000	0.000341	
35216-11-6	7-tetradecyne	697.74	1697000	0.0007768	0.622
3522-86-9	3-sec-butylphenol	733	3468000	0.0004155	0.51
3522-94-9	2,2,5-trimethylhexane	569.8	2330000	0.000519	0.345
3524-73-0	5-methyl-1-hexene	528	2870000	0.000398	0.31
35242-05-8	trans-2-butylcyclohexanol	665	3090000	0.0005298	
3525-25-5	3-ethyl-1-heptanol	636.71	2546000	0.0005525	0.846
353-36-6	ethyl fluoride	375.31	5028000	0.000164	0.22
353-50-4	carbonyl fluoride	297	5760000	0.000141	0.283
353-58-2	bromodichlorofluoromethane	512.9	4530000	0.000266	0.187
353-59-3	bromochlorodifluoromethane	426.15	4254000	0.000246	0.187
353-61-7	2-fluoro-2-methylpropane	446.83	3773000	0.0002665	0.194