CASRN	Chemical	Tc	Pc	Vc	omega
13453-12-8	antimony (V) iodide	1096.7			
13454-99-4	phosphorus (V) dichloride trifluoride	457.02	4048000	0.00025717	0.118
13456-23-0	1,1-diphenylhexadecane	850.1	1130000	0.001556	0.958
13456-25-2	1,1-diphenyl-1-hexadecene	881.36	985000	0.0013685	0.8
13463-39-3	nickel carbonyl	508.4	3239000	0.00035753	0.056
13463-40-6	iron pentacarbonyl	607.2	3524000	0.00039252	0.091
13465-07-1	hydrogen disulfide	542.39	8836000	0.00013983	0.366
13465-66-2	selenium tetrafluoride	608.64	8560000	0.00015488	
13465-71-9	silane, trifluoro	291.02	3995000	0.00016593	0.079
13465-73-1	silane, monobromo	454	5644000	0.000177	0.155
13465-74-2	silane, bromotrichloro	545.5	3871000	0.00030693	
13465-76-4	silane, tribromochloro	614.74	4372000	0.00030627	
13465-77-5	disilane, hexachloro	660.96	2911000	0.00051727	0.035
13465-78-6	silane, monochloro	396.65	4843000	0.000174	0.136
13465-84-4	silane, tetraiodo	944	5054000	0.000558	
13470-08-1	titanium (III) fluoride	2716.12	43133000	0.00013717	
13470-11-6	tungsten (V) bromide	923.75	5775000	0.00034845	
13470-14-9	tungsten (V) chloride	861.73	5361000	0.00035015	
13471-42-6	3-hexanol, (R)	581.8	3461000	0.0003774	0.582
13475-76-8	11-butyldocosane	839.06	725000	0.0015662	
13475-77-9	9-octyleicosane	864.27	655000	0.0016856	
13475-78-0	5-ethyl-2-methylheptane	606.7	2189000	0.000555	0.424
13475-79-1	2,4-dimethyl-3-isopropylpentane	614.4	2341000	0.000521	0.365
13475-81-5	2,2,3,3-tetramethylhexane	623	2510000	0.000557	0.366
13475-82-6	2,2,4,6,6-pentamethylheptane	629.3	1852000	0.0006795	0.375
13478-45-0	niobium (V) bromide	954.75	4615000	0.00045062	
13491-79-7	2-tert-butylcyclohexanol	665	3090000	0.0005298	
13494-80-9	tellurium	4840	261710000	0.00004613	
13497-91-1	phosphorous chloride	696.14	4059000	0.00037356	
13499-05-3	hafnium (IV) chloride	725.7	5420000	0.000314	
135-01-3	o-diethylbenzene	668	2880000	0.000502	0.34
135-98-8	sec-butylbenzene	664.54	2950000	0.000497	0.279
13501-73-0	3,5-dimethyl-1-hexanol	616.17	2835000	0.0004905	0.773
13517-10-7	boron triiodide	773	6059000	0.000356	
13520-77-9	tungsten (VI) oxytetrabromide	903.22	6222000	0.0003162	
13520-78-0	tungsten (VI) oxytetrachloride	782	5213000	0.000338	
13520-79-1	tungsten (VI) oxytetrafluoride	707.67	8988000	0.00017151	
13520-87-1	vanadyl chloride	636		0.000171	
13537-33-2	silane, monofluoro	286.28	4688000	0.00013912	0.125
13540-50-6	2',5'-dimethyldiphenylmethane	790.1	2436000	0.0006595	0.521
13540-56-2	3',4'-dimethyldiphenylmethane	794.27	2436000	0.0006595	0.521
13550-49-7	heavy ammonia	388.4	12571000	0.00007038	0.447
13552-21-1	1-amino-2-butanol	571.82	4140000	0.0003	0.711
13556-55-3	1,2,3,4-tetrahydro-2,2-dimethylnaphthalene	737.62	2773000	0.0005485	0.424
13556-58-6	1-ethyl-[1,2,3,4-tetrahydronaphthalene]	735.44	2773000	0.0005485	0.424
13569-43-2	germane, bromo	515.2	6661000	0.00016847	
13569-49-8	rhenium (III) bromide	1226.09			
13596-23-1	octachlorotrisilane	775.41	2470000	0.00071499	
13597-73-4	disiloxane	416.86	3619000	0.00026241	0.078
13598-36-2	phosphorous acid	711.92	8843000	0.00017537	
13598-42-0	silane, iodo	515	6941000	0.00016	0.276
136-35-6	1,3-diphenyltriazene	845	2820000	0.000642	0.623
136-60-7	butyl benzoate	724	2590000	0.000555	0.577
136-81-2	o-amylphenol	751	2980000	0.000546	0.569
13602-13-6	1,2-dichloro-2-butene	640	3798000	0.000332	0.302
13616-82-5	2,4-dimethylthiophenol	718.58	3806000	0.0004295	0.373
13632-93-4	1-methyl-2,3-diethylbenzene	680.84	2569000	0.0005435	0.441
13632-94-5	1-methyl-2,5-diethylbenzene	681.55	2569000	0.0005435	0.441
13632-95-6	1-methyl-2,6-diethyl benzene	683.96	2569000	0.0005435	0.441
13637-63-3	chlorine pentafluoride	416	5270000	0.000233	0.316
13637-65-5	germane, chloro	478.44	6175000	0.00016877	
13643-05-5	4-methyl-1,2-pentadiene	528.04	3577000	0.0003415	0.237
136705-66-3	(3S,6S)-3,6-octanediol	692.04	3100000	0.000517	1.28
13678-54-1	2-methyl-4-ethyl thiophene	655	3713000	0.0003875	0.342
13693-09-9	xenon hexafluoride	534.62	5414000	0.00021511	
137-06-4	o-methylthiophenol	714.96	4386000	0.0003735	0.329
137-17-7	2,4,5-trimethylaniline	705.58	3284000	0.000482	0.413
137-32-6	2-methyl-1-butanol	575.4	3940000	0.000327	0.574
13701-67-2	diborane, tetrachloro	507.85	3294000	0.000373	
13709-31-4	vanadyl trifluoride	1163.52			
13709-35-8	difluorodisulfane	477.01	6206000	0.00016742	
13709-36-9	xenon difluoride	631	9320000	0.000148	
13709-52-9	hafnium fluoride	1578.98	23231000	0.00014805	
13709-61-0	xenon tetrafluoride	612	7040000	0.000188	
13714-85-7	4-methyl-trans-3-heptene	574.35	2687000	0.0004645	0.351
13721-54-5	1-hexeN-3-yne	525	4000000	0.0002843	
13732-80-4	1-methyl-3,4-diethylbenzene	676.58	2569000	0.0005435	0.441
13760-02-6	silane, diiodo	660	6688000	0.000232	0.389
13762-26-0	zirconium dichloride	2072.62	24516000	0.00018416	
13764-18-6	1,4,6,7-tetramethylnaphthalene	810.54	2389000	0.0006335	0.535
13768-38-2	osmium (VI) fluoride	581.16			
13768-94-0	silane, dibromo	550	5300000	0.000246	0.227
13769-36-3	germane, dibromo	563.33	5728000	0.00021424	
13776-62-0	trans-difluorodiazine	260	5570000	0.00010523	
13777-22-5	hafnium (IV) bromide	746	5631000	0.000415	
13777-23-6	hafnium (IV) iodide	916	4992000	0.000528	
13777-25-8	zirconium bromide	805	8463000	0.000424	0.31
13780-57-9	sulfur chloride pentafluoride	390.9	3960000	0.00021707	
138-86-3	limonene	660	2750000	0.000524	0.313
13811-01-3	2-methyl-5-isopropyl-1,3-cyclohexadiene, (±)	647	2780000	0.0005053	0.341
13812-43-6	cis-difluorodiazine	272	7090000	0.00010523	
13814-76-1	rhenium (VI) oxytetrachloride	781		0.000362	
13818-89-8	digermane	491.01	4667000	0.00023968	0.165
13819-84-6	molybdenum (V) fluoride	772.5	8467000	0.00019874	
13824-36-7	silane, difluoro	318.21	4759000	0.00015231	0.139
13824-74-3	phosphorous difluoride	417	4094000	0.00022189	
13830-68-7	disilane, hexafluoro	411.33	3016000	0.00031064	0.022
13831-30-6	(acetyloxy)acetic acid	764	4320000	0.000311	0.71
13847-65-9	trifluoramine oxide	303	6430000	0.000147	
13939-06-5	molybdenum hexacarbonyl	1308.72	5443000	0.00052374	
13940-94-8	a-a-p-trichlorotoluene	737	3340000	0.000447	0.26
13952-84-6	sec-butylamine	514.3	4000000	0.00031	0.282
13965-73-6	diborane, tetrafluoro	364.54	4225000	0.00020877	
13979-28-7	ethyl 2,3-dimethyl-2-butenoate	616	2600000	0.0004705	
13986-26-0	zirconium iodide	960	9457000	0.00053	0.343
13991-37-2	trans-2-pentenoic acid	676	4057000	0.0003215	0.415
140-10-3	trans-cinnamic acid	797	3540000	0.000446	0.715
140-11-4	benzyl acetate	699	3180000	0.000449	0.473
140-29-4	benzeneacetonitrile	732	3460000	0.000391	0.472
140-31-8	N-aminoethyl piperazine	708	3850000	0.000407	0.557
140-66-9	p-tert-octylphenol	765	2280000	0.000704	0.633
140-80-7	N1,N1-diethyl-1,4-pentanediamine	741	2850000	0.0005974	
140-88-5	ethyl acrylate	553	3680000	0.000323	0.378
14010-23-2	ethyl heptadecanoate	759	1280000	0.0010413	
14021-92-2	2,9-decanediol	716.12	2530000	0.000629	1.315
14049-36-6	silane, chlorotrifluoro	307.7	3460000	0.00021361	0.053
14069-89-7	sec-butyl isocyanide	565.89	3400000	0.0003355	0.397
14072-86-7	4,4-dimethylcyclohexene	597.08	3460000	0.0004005	0.247
14073-97-3	trans-5-methyl-2-isopropylcyclohexanone, (2S)	710	2750000	0.0005195	
14092-00-3	2-methyl-(1-thiaethyl)-benzene	718.95	3660000	0.0004295	0.371
14092-20-7	2-hexeN-4-yne	525	4000000	0.0002843	
14096-82-3	cobalt nitrosyl tricarbonyl	567.68	4743000	0.00029856	0.178
141-05-9	diethyl maleate	680	2610000	0.000508	0.666
141-06-0	propyl pentanoate	602	2610000	0.000494	0.395
141-16-2	citronellyl butyrate	738	1800000	0.0007738	
141-25-3	2,6-dimethyl-1-octeN-8-ol	643	2300000	0.0005276	
141-32-2	butyl acrylate	598	2910000	0.000428	0.482
141-43-5	monoethanolamine	678.2	7124000	0.000225	0.447
141-59-3	tert-octyl mercaptan	627	2590000	0.000529	0.3
141-62-8	decamethyltetrasiloxane	599.4	1227000	0.001157	0.673
141-63-9	dodecamethylpentasiloxane	628.4	945000	0.001509	0.726
141-70-8	4,4-dimethyl-2-neopentyl-1-pentene	656.77	1872000	0.0006948	0.548
141-78-6	ethyl acetate	523.3	3880000	0.000286	0.366
141-79-7	mesityl oxide	600	3410000	0.000355	0.327
141-82-2	malonic acid	805	5640000	0.000258	0.942
141-93-5	m-diethylbenzene	663	2880000	0.000488	0.354
141-97-9	ethylacetoacetate	643	3270000	0.000391	0.561
14108-88-4	1,2,3,4-tetrahydro-5,8-dimethylnaphthalene	737.62	2773000	0.0005485	0.424
14130-05-3	nonadecylamine	786.3	1020000	0.001115	0.937
14130-06-4	docosylamine	834.97	933000	0.0012965	0.821
14130-07-5	tricosylamine	846.99	881000	0.0013525	0.791
14130-08-6	tetracosylamine	859.72	833000	0.0014085	0.753
14130-09-7	pentacosylamine	871.97	789000	0.0014645	0.708
14130-10-0	hexacosylamine	884.99	748000	0.0015205	
14130-11-1	heptacosylamine	898.82	710000	0.0015765	
14130-12-2	octacosylamine	912.27	675000	0.0016325	
14130-15-5	heneicosylamine	822.4	991000	0.0012405	0.844
14167-59-0	tetratriacontane	950.88	498000	0.0020438	
14188-40-0	germane, chlorotrifluoro	388.45	4200000	0.00020145	
14188-79-5	2-decylnaphthalene	843.81	1506000	0.0009695	0.762
14189-13-0	2-ethyl-1,5-pentanediol	627.98	3468000	0.0004595	1.245
142-25-6	N,N,N'-trimethylethylenediamine	637.67	4210000	0.000358	0.591
142-28-9	1,3-dichloropropane	603	4150000	0.000291	0.292
142-29-0	cyclopentene	507	4790000	0.00024	0.195
142-60-9	octyl propanoate	677.2	1770000	0.000693	0.621
142-62-1	hexanoic acid	660.2	3380000	0.000413	0.73
142-82-5	heptane	540.2	2740000	0.000428	0.35
142-84-7	di-propylamine	550	3140000	0.000402	0.45
142-90-5	lauryl methacrylate	782	1600000	0.0009064	
142-91-6	isopropyl palmitate	759	1280000	0.0010364	
142-92-7	hexyl acetate	618	2540000	0.000494	0.54
142-96-1	dibutyl ether	584.1	2460000	0.000487	0.448
14250-79-4	2,2-dimethyl-1-heptanol	623	2574000	0.0005475	0.78
14252-42-7	1,1-bis(ethylthio)ethane	673	2750000	0.0004795	0.37
14255-23-3	2,4-dimethyl-2-hexene	562.1	2710000	0.0004585	0.322
14255-24-4	4-methyl-cis3-heptene	574.35	2687000	0.0004645	0.351
14255-44-8	2-nitrohexane	639	3178000	0.0004475	0.523
14272-54-9	3-ethyl-3-penteN-1-yne	545	3600000	0.0003267	
14287-61-7	2,3-dimethylbutanoic acid	661	3380000	0.000389	0.652
14290-92-7	2,2-dimethyl-3-thiapentane	588	3130000	0.000412	0.286
143-07-7	dodecanoic acid	743	1940000	0.000705	0.88
143-08-8	1-nonanol	670.7	2528000	0.000572	0.6
143-10-2	1-decanethiol	696	2130000	0.000624	0.587
143-13-5	nonyl acetate	661	1990000	0.000653	0.716
143-15-7	1-bromododecane	726.55	1889000	0.0007695	0.69
143-16-8	dihexylamine	678.2	1870000	0.000732	0.69
143-22-6	2-[2-(2-butoxyethoxy)ethoxy]ethanol	695	2110000	0.000684	1.138
143-24-8	tetraethylene glycol dimethyl ether	705	1940000	0.000674	0.965
143-27-1	hexadecylamine	757.5	1290000	0.00095	0.826
143-28-2	cis-9-octadeceN-1-ol	755	1350000	0.0009913	
143-33-9	sodium cyanide	2900	23760000	0.00030446	0.589
14303-70-9	propyl tetradecanoate	733	1420000	0.0009277	
14304-30-4	1-bromo-2-decene	683.71	2363000	0.0006375	0.579
14310-20-4	4-methyl-1,2-diphenylethane	781.25	2473000	0.0006595	0.522
14335-40-1	phosphorus (III) chloride difluoride	362.4	4520000	0.0001729	
14376-79-5	3,3,5,5-tetramethylcyclohexanone	710	2750000	0.0005195	
144-19-4	2,2,4-trimethyl-1,3-pentanediol	680	2990000	0.000503	0.841
144-62-7	oxalic acid	804	7020000	0.000205	0.918
14402-50-7	2-dodecanethiol	720	1800000	0.000747	0.593
14411-75-7	1,3-dimethyl-2-isopropylbenzene	674.78	2590000	0.0005375	0.411
14424-33-0	1-nitro-2-methylpentane	634.51	3178000	0.0004475	0.523
14436-32-9	9-decenoic acid	776	2300000	0.0006036	
1445-23-4	2-tert-butyl-4,5-dimethylphenol	755.67	2747000	0.0005987	0.59
1445-79-0	trimethylgallium	510	4400000	0.000211	0.208
14459-59-7	molybdenum (VI) oxytetrafluoride	712.86	7594000	0.00020447	
1446-61-3	dehydroabietylamine	863	1700000	0.00102	0.742
14464-46-1	silicon dioxide (cristobalite)	5021.49	78813000	0.00013879	
1447-26-3	5-methyl-4-hepteN-3-one	635	3160000	0.0004518	
14476-30-3	1,2,2-tribromopropane	709.19	6104000	0.0003785	0.451
14476-37-0	4-undecanone	678.01	2046000	0.0006575	0.653
1449-65-6	germane, methyl	392.94	4868000	0.00017584	
14490-79-0	trans-15-tetracosenoic acid	996	1200000	0.0014099	
14521-18-7	ruthenium (V) fluoride	977.44	8060000	0.0003025	0.296
1453-24-3	1-ethylcyclohexene	617.68	3284000	0.0004025	0.285
14531-16-9	5-methyl-5-ethylnonane	641.56	1809000	0.0006965	0.489
1454-84-8	1-nonadecanol	799	1380000	0.00107	0.908
1454-85-9	1-heptadecanol	780	1500000	0.00096	0.849
14548-31-3	1-hexeN-5-yne	525	4000000	0.0002843	
1455-20-5	2-butylthiophene	665	3250000	0.0004332	
1455-21-6	1-nonanethiol	681	2310000	0.000571	0.531
14558-12-4	1,3,5,8-tetramethylnaphthalene	810.54	2389000	0.0006335	0.535
14558-14-6	1,3,6,8-tetramethylnaphthalene	807.6	2450000	0.0006315	0.524
1458-98-6	3-bromo-2-methyl-1-propene	569.83	4529000	0.0003035	0.297
1458-99-7	4-chloro-2-pentene	561.69	3541000	0.0003432	0.275
1459-09-2	1-phenylhexadecane	818	1270000	0.00114	0.9
1459-10-5	1-phenyltetradecane	800	1400000	0.00103	0.813
1459-11-6	1,2,4-tri-tert-butylbenzene	754.52	1481000	0.0009678	0.742
1459-93-4	dimethyl isophthalate	719	2790000	0.000539	0.655
14596-92-0	1,cis-3-hexadiene	526.7	3460000	0.0003325	0.266
1460-02-2	1,3,5-tri-tert-butylbenzene	754.52	1481000	0.0009678	0.742
1460-98-6	1-methyl-2,4-diisopropylbenzene	714	2180000	0.000648	0.529
14602-62-1	1,1,2-tribromopropane	718.16	6075000	0.0003775	0.486
14609-79-1	2,2,4,4-tetramethyl-3-pentanol	602.64	2646000	0.0005305	0.651
14610-37-8	methylisobutylamine	515.2	3490000	0.000345	0.403
1462-10-8	4-methyl-1,4-pentanediol	652.26	3951000	0.0003985	1.14
1462-11-9	5-methyl-1,5-hexanediol	644.63	3514000	0.0004545	1.175
1462-84-6	2,3,6-trimethylpyridine	653	3330000	0.000417	0.376
1463-17-8	2,8-dimethylquinoline	751.67	3353000	0.0005145	0.497
14642-66-1	3-diethylaminopropylamine	689	3450000	0.0004654	
146502-80-9	(1R)-(-)-neomenthyl acetate	694	2150000	0.0006198	
14676-29-0	3-ethyl-2-methylheptane	610.9	2229000	0.000544	0.415
14686-13-6	trans-2-heptene	543	2850000	0.000406	0.337
14686-14-7	trans-3-heptene	540	2850000	0.000406	0.334
14691-44-2	trigermane	616.37	4705000	0.00029844	0.18
14693-81-3	tantalum (V) iodide	1318.8			
1471-03-0	3-propoxy-1-propene	536	3120000	0.000364	0.38
14720-74-2	2,2,4-trimethylheptane	594.5	2168000	0.000552	0.389
14721-66-5	3,7,11,15-tetramethylhexadecanoic acid	822	1076000	0.0011795	0.935
14722-40-8	1,15-pentadecanediol	788.66	1634000	0.0009135	1.274
14739-73-2	2,2,3,5,5-pentamethylhexane	623.34	2015000	0.0006235	0.333
14752-75-1	heptadecylbenzene	826	1210000	0.0012	0.92
14753-05-0	1-chloro-2-methylpentane	578.68	3009000	0.0004145	0.343
1476-11-5	1,4-dichloro-cis2-butene	640	3780000	0.000343	0.33
14762-55-1	helium-3	3.31	117000	0.0000725	-0.4715
14765-30-1	2-(1-methylpropyl)cyclohexanone	710	2750000	0.0005195	
14779-92-1	8-methyl-2-nonanol	640.97	2334000	0.0006025	0.852
148-24-3	8-hydroxyquinoline	788	4360000	0.000414	0.522
1480-63-3	1-fluorononadecane	747.3	1000000	0.001103	0.773
14808-60-7	silicon dioxide (α quartz)	3780	3160000	0.000163	0.719
1483-60-9	2,4-dimethyl-1-sec-butylbenzene	697.15	2361000	0.000602	0.437
1484-87-3	3,3,5-trimethyl-1-hexanol	627.43	2595000	0.0005415	0.748
14850-22-7	cis-3-octene	569	2590000	0.000461	0.38
14850-23-8	trans-4-octene	573	2580000	0.00048	0.339
14852-31-4	2-hexadecanol	754.2	1490000	0.000933	0.764
1489-47-0	4-methyl-1-nonanol	638.09	2316000	0.0006085	0.883
1489-56-1	1-methyl-1,3-cyclohexadiene	545	3600000	0.0003267	
14890-41-6	vanadium (II) bromide	1730.09			
14898-79-4	(R)-(-)-2-butanol	538.22	4219000	0.0002724	0.593
149-30-4	2(3H)-benzothiazolethione	749	4000000	0.000406	0.332
149-31-5	2-methyl-1,3-pentanediol	648.13	3936000	0.0003975	1.179
149-57-5	2-ethylhexanoic acid	673.2	2780000	0.000528	0.822
149-74-6	dichloromethylphenylsilane	689	2870000	0.000508	0.402
14919-01-8	trans-3-octene	574	2580000	0.00048	0.344
14920-89-9	2,3-dimethylfuran	559.41	4173000	0.0003065	0.332
14938-35-3	4-pentylphenol	751	2980000	0.000546	0.569
1495-50-7	cyanogen fluoride	368.51	7900000	0.00010626	0.303
14959-86-5	cis-7-dodecenyl acetate	738	1800000	0.0007738	
14965-52-7	silane, trichlorofluoro	438.6	3580000	0.00028172	0.093
14977-61-8	chromium oxychloride	626.33	5999000	0.00023781	0.256
14979-39-6	4-methyl-3-heptanol	578.89	2835000	0.0004905	0.773
14984-81-7	selenium dioxydifluoride	406.72	5338000	0.00016598	
14986-21-1	disiloxane, hexachloro	655.58	2790000	0.00053521	0.022
150-76-5	p-methoxyphenol	761	4970000	0.000342	0.536
150-84-5	citronellyl acetate	694	2150000	0.0006198	
1501-60-6	2-methyl-1,cis-3-pentadiene	535.2	3481000	0.0003335	0.241
15013-37-3	4-methyl-2-thiahexane	610.4	3196000	0.0004195	0.351
150285-07-7	tert-amyl-tert-octylamine	694.76	1671000	0.0007883	0.685
151-19-9	3,6-dimethyl-3-octanol	618.02	2359000	0.0005975	0.788
151-56-4	ethyleneimine	537	6850000	0.000173	0.201
151-67-7	halothane	496	3920000	0.000296	0.275
1511-62-2	bromodifluoromethane	411.98	5132000	0.000167	0.205
1511-82-6	1,1,1-trifluorooctadecane	722.3	1120000	0.001072	0.668
15145-69-4	3-chlorobenzal chloride	737	3340000	0.000447	0.26
1517-66-4	(S)-3-methyl-2-butanol	562.34	3890000	0.0003269	0.577
15179-32-5	sulfur fluoride hypofluorite	358.69	3807000	0.00020526	
1518-72-5	di-isobutyl disulfide	704.16	2624000	0.0005915	0.529
1518-75-8	3-propylthiophene	652.99	3782000	0.0003875	0.342
15181-11-0	3,5-di-tert-butyltoluene	741	1895000	0.00079	0.638
1520-42-9	1,1',1''-(1-ethanyl-2-ylidene)trisbenzene	840	2040000	0.000808	0.612
1520-46-3	1,3-diphenyl-2-methylpropane	778.3	2200000	0.000777	0.452
15220-85-6	2-methyl-1-propene, tetramer	720.46	1422000	0.0009233	0.702
15230-48-5	germane, dichloro	535.61	5430000	0.00021485	
15232-76-5	3-octyne	600.66	2999000	0.0004455	0.324
15268-49-2	2-methyl-1-propoxypropane	558.21	2829000	0.0004285	0.307
1530-03-6	1,1-diphenylpropane	774.3	2390000	0.000722	0.508
1530-04-7	1,1-diphenylhexane	794.4	1900000	0.000892	0.625
1530-05-8	1,1-diphenylheptane	802.7	1780000	0.000954	0.662
1530-06-9	1,1-diphenyloctane	810	1670000	0.001014	0.698
1530-07-0	1,1-diphenyldecane	822	1490000	0.001146	0.695
1530-08-1	1,1-diphenylundecane	827.9	1410000	0.00121	0.798
1530-11-6	1,1-diphenyl-1-pentene	797.63	2202000	0.0007525	0.552
1530-19-4	1,1-diphenyl-1-hexene	803.6	2016000	0.0008085	0.593
1530-20-7	1,1-diphenyl-1-heptene	817.04	1853000	0.0008645	0.632
1530-21-8	1,1-diphenyl-1-octene	828.02	1709000	0.0009205	0.669
1530-26-3	1,1-diphenyl-1-nonene	835.6	1581000	0.0009765	0.703
1530-27-4	1,1-diphenyl-1-decene	843.78	1467000	0.0010325	0.733
1530-28-5	1,1-diphenyl-1-undecene	850.03	1365000	0.0010885	0.759
1530-29-6	1,1-diphenyl-1-dodecene	856.93	1273000	0.0011445	0.78
15306-27-1	1-heptacosene	849.93	704000	0.0015285	
15331-16-5	1,1,2-tribromo-2-methylpropane	758.11	5344000	0.0004285	0.462
1534-26-5	3-tridecanone	707.26	1732000	0.0007695	0.727
1534-27-6	3-dodecanone	687.46	1879000	0.0007135	0.691
15340-96-2	3,7-dimethyl-2-octanol	641.33	2352000	0.0005965	0.822
1536-21-6	1-fluorotridecane	674.2	1540000	0.000773	0.646
1541-23-7	1,5-heptadiene	556	3450000	0.0003478	
15430-98-5	8-pentadecene	706.17	1518000	0.0008663	0.663
15448-47-2	(R)-(+)-propylene oxide	501.13	5337000	0.000187	0.236
1545-17-1	1-fluoroheptadecane	726.2	1150000	0.000993	0.742
15466-93-0	trans-1,3-dimethylcyclohexanol	645	3590000	0.0004482	
15466-94-1	cis-1,3-dimethylcyclohexanol	645	3590000	0.0004482	
15468-32-3	silicon dioxide (tridymite)	5021.49	78813000	0.00013879	
15469-77-9	3-decenoic acid	776	2300000	0.0006036	
15501-33-4	1-iodo-2,2-dimethylpropane	580.92	4136000	0.0003235	0.623
1551-06-0	2-ethyl-1H-pyrrole	630	4400000	0.0003125	
1551-09-3	3-propyl-1H-pyrrole	650	4050000	0.0003503	
1551-21-9	3-methyl-2-thiabutane	551	3900000	0.0003075	0.259
1551-27-5	2-propylthiophene	649.23	3782000	0.0003875	0.342
1551-32-2	2-ethylthiacyclopentane	659.28	3810000	0.0003585	0.273
1551-88-8	cis-2,3-dimethylcyclohexanone	670	3250000	0.0004217	
1551-89-9	trans-2,3-dimethylcyclohexanone	670	3250000	0.0004217	
1552-12-1	cis,cis-1,5-cyclooctadiene	645	3900000	0.000366	0.286
1552-67-6	ethyl 2-hexenoate	616	2600000	0.0004705	
15520-10-2	1,5-diamino-2-methylpentane	663	3810000	0.0004084	0.65
15521-18-3	2-(dimethylamino)-1-propanol	626.41	3790000	0.000368	0.841
1555-17-5	1-fluoropentadecane	702.1	1330000	0.000883	0.698