CASRN	Chemical	Tc	Pc	Vc	omega
4209-90-9	2,2-dimethyl-3-hexanol	586.35	2869000	0.0004855	0.706
4209-91-0	3,5-dimethyl-3-hexanol	580.75	2869000	0.0004855	0.706
421-04-5	1-chloro-1,1,2-trifluoroethane	428.95	4093000	0.0002395	0.263
421-07-8	1,1,1-trifluoropropane	392	3450000	0.000249	0.301
421-48-7	1,1,1,2-tetrafluoropropane	414.81	3633000	0.0002585	0.277
42101-38-2	3,3-dichloro-2-methyl-1-butene	660	3500000	0.000376	
42131-85-1	2-chloro-1-pentene	547.93	3510000	0.0003465	0.281
42131-89-5	2,2-dichlorohexane	633.09	2891000	0.0004635	0.397
42131-98-6	2-chloro-cis2-pentene	556.15	3552000	0.0003455	0.271
42132-00-3	2-chloro-trans-2-pentene	556.15	3552000	0.0003455	0.271
4215-86-5	(4-methylpentyl)benzene	697.15	2361000	0.000602	0.437
42152-47-6	7-methyl-1,6-octadiene	616	3280000	0.0004007	
4218-48-8	1-ethyl-4-isopropylbenzene	672.21	2630000	0.0005375	0.412
42185-47-7	2,3,6-trimethylcyclohexanone	690	2950000	0.0004746	
4219-24-3	3-hexenoic acid	696	3300000	0.0003894	
42195-92-6	2,3-dimethylcyclohexylamine	642	3100000	0.0004487	
42202-42-6	2-nitro-3-methylpentane	634.96	3206000	0.0004415	0.491
42205-08-3	1,2,3-triethylbenzene	684.37	2336000	0.0005995	0.479
4221-99-2	(S)-(+)-2-butanol	538.22	4219000	0.0002724	0.593
42217-02-7	1-chloroeicosane	800.64	992000	0.0012045	0.782
42217-03-8	1-chlorodocosane	821.75	882000	0.0013165	0.758
42245-37-4	1-amino-3-methylpentane	580.19	3345000	0.0003945	0.451
42246-24-2	rhenium (VII) trioxyfluoride	655.31			
4229-91-8	2-propylfuran	580	3870000	0.0003382	
42296-74-2	hexadiene	526.51	3494000	0.0003324	0.25
4230-97-1	allyl octanoate	672	2250000	0.0005784	
42328-76-7	2,4-dimethyl-2-hexanol	578.98	2869000	0.0004855	0.706
42398-73-2	6-methylisoquinoline	778.59	3705000	0.000463	0.428
42425-07-0	thiacycloheneicosane	872.75	1561000	0.0010155	0.44
4245-35-6	isoamyl acrylate	616	2600000	0.0004705	
42474-20-4	1,3-dibromopentane	680.24	4152000	0.0004335	0.48
42474-21-5	1,2-dibromoheptane	700.05	3288000	0.0005455	0.571
4253-89-8	2,5-dimethyl-3,4-diathiahexane	673	2750000	0.0004795	0.37
4254-14-2	(R)-(-)-1,2-propanediol	642	6010000	0.000228	1.13
4254-15-3	(S)-(+)-1,2-propanediol	642	6010000	0.000228	1.13
4255-62-3	4,4-dimethylcyclohexanone	670	3250000	0.0004217	
42551-55-3	3-amino-2-butanol	571.82	4140000	0.0003	0.711
42569-16-4	1-methyl-2-buteN-1-ol, (+,-)	573	4550000	0.0002584	
4258-93-9	1-methyl-1-propylcyclohexane	667	2570000	0.000534	0.274
4259-00-1	1,1,2-trimethylcyclopentane	584.65	3107000	0.0004215	0.252
42599-17-7	trans-1-iodo-1-octene	692.75	2614000	0.0005515	0.419
4265-25-2	2-methylbenzofuran	697	3640000	0.000407	0.375
4265-97-8	heptyl octanoate	708	1580000	0.0008494	
4271-27-6	diethyldodecylamine	700.59	1356000	0.0009695	0.771
4272-02-0	1,4-undecanediol	749.94	2307000	0.0006835	1.317
4276-09-9	(R)-(-)-2-amino-3-methyl-1-butanol	626.41	3790000	0.000368	0.841
4276-49-7	1-bromoeicosane	816.19	1062000	0.0012175	0.841
4276-50-0	1-bromoheneicosane	826.47	998000	0.0012735	0.831
4276-51-1	1-bromohexacosane	881.99	753000	0.0015535	
42764-74-9	2-methyl-1-heptadecene	745.42	1190000	0.0010255	0.72
42775-75-7	5-ethyl-1,2,3,4-tetrahydronaphthalene	737.62	2773000	0.0005485	0.424
42789-13-9	1,2-nonanediol	684.73	2799000	0.0005715	1.293
4279-22-5	2,2-dichlorobutane	578.17	3642000	0.0003465	0.247
4282-40-0	1-iodoheptane	646.56	3206000	0.0004465	0.816
4282-42-2	1-iodononane	683.84	2608000	0.0005585	0.896
4282-44-4	1-iodoundecane	715.99	2163000	0.0006705	0.964
4283-80-1	2-bromo-2-methylpentane	595.92	3436000	0.0004225	0.341
4283-83-4	3-bromo-2-methylpentane	594.59	3424000	0.0004215	0.373
42841-80-5	4-thianonane	660.72	2579000	0.0005375	0.465
42856-62-2	2-methyl-1,5-pentanediol	652.71	3936000	0.0003975	1.179
42875-41-2	tridecyl formate	725.4	1470000	0.000865	0.945
4291-79-6	1-methyl-2-propylcyclohexane	667	2570000	0.000534	0.274
4291-80-9	1-methyl-3-propylcyclohexane	667	2570000	0.000534	0.274
4291-81-0	1-methyl-4-propylcyclohexane	667	2570000	0.000534	0.274
4291-98-9	1-pentylcyclopentene	647.47	2598000	0.0005225	0.403
4291-99-0	1-hexylcyclopentene	665.48	2361000	0.0005785	0.447
42910-16-7	triundecylamine	880.67	529000	0.0019215	
4292-00-6	1-heptylcyclopentene	680.78	2155000	0.0006345	0.49
4292-04-0	1-isopropyl-1-cyclohexene	620	2860000	0.0004518	
4292-19-7	1-iodododecane	730.57	1982000	0.0007265	0.992
4292-75-5	hexylcyclohexane	691.81	2133000	0.0006405	0.456
4292-92-6	pentylcyclohexane	674.01	2336000	0.0005845	0.413
430-44-4	2-fluoro-1-butene	462.01	3906000	0.0002595	0.237
430-53-5	1,1-dichloro-2-fluoroethane	473.24	4323000	0.0002575	0.272
430-57-9	1,2-dichloro-1-fluoroethane	538.33	4323000	0.000258	0.272
430-61-5	1,1-difluoropropane	430	3760000	0.000236	0.276
430-66-0	1,1,2-trifluoroethane	429.8	5241000	0.000179	0.326
431-06-1	1,2-dichloro-1,2-difluoroethane	487.57	4120000	0.0002695	0.295
431-07-2	1-chloro-1,2,2-trifluoroethane	428.68	4078000	0.0002385	0.295
431-31-2	1,1,1,2,3-pentafluoropropane	403.84	3444000	0.0002765	0.33
431-63-0	1,1,1,2,3,3-hexafluoropropane	412.38	3412000	0.00027	0.369
431-89-0	heptafluoropropane	374.83	2912000	0.000274	0.355
43197-78-0	3-chloro-3-methylhexane	621.08	2693000	0.0004765	0.418
4325-48-8	2-chloro-2-methylpentane	575.46	3046000	0.0004095	0.283
4325-49-9	2-chloro-2-methylheptane	642.41	2443000	0.0005325	0.462
4325-82-0	1-methyl-2-penteN-1-ol	587	3900000	0.0003038	
4340-76-5	2-eicosanol	791.2	1140000	0.001153	0.899
4351-54-6	cyclohexyl formate	645	3520000	0.000384	0.368
4358-59-2	methyl cis-2-butenoate	555.5	3680000	0.000323	0.355
4358-75-2	2-amino-2,3-dimethylbutane	556.88	3420000	0.0003835	0.356
4371-48-6	2-methyl-3-isopropylphenol	785.78	3408000	0.0004155	0.509
4375-96-6	2-iodo-1-propene	597.58	4559000	0.0002735	0.184
4376-23-2	trans-3-hexeN-2-one	595	3960000	0.0003428	
4385-04-0	dimethylhexylamine	608.7	2550000	0.00051	0.323
4390-04-9	2,2,4,4,6,8,8-heptamethylnonane	692	1570000	0.0009692	0.548
4394-85-8	4-morpholinecarboxaldehyde	762	3983000	0.000335	0.393
4396-19-4	2,3-dithiaheptane	657.5	3310000	0.0004188	0.358
4398-65-6	2-chloro-2-methylhexane	621.08	2693000	0.0004765	0.418
4402-32-8	1-diethylamino-2-propanol	716	3300000	0.0004683	
4404-98-2	4-amino-4-methyl-2-pentanol	681	3440000	0.000436	0.97
4410-99-5	2-phenylethanethiol	725.28	3830000	0.0004295	0.374
4412-16-2	2-dodecenoic acid	816	2100000	0.0006887	
4427-56-9	4-methyl-2-isopropylphenol	719.35	3408000	0.0004155	0.509
4432-77-3	ethyl-tert-butylamine	517.03	3221000	0.0003955	0.369
4433-10-7	2,4-dimethylbiphenyl	792.44	3136000	0.000593	0.458
4433-11-8	3,4-dimethylbiphenyl	801.2	3190000	0.000593	0.454
4434-66-6	1-bromononadecane	805.31	1131000	0.0011615	0.843
4435-50-1	1,2,3-butanetriol	719	5830000	0.000305	1.75
4439-24-1	2-(2-methylpropoxy)ethanol	600	3240000	0.0004073	0.817
4442-85-7	cyclohexaneethylamine	642	3100000	0.0004487	
4443-55-4	eicosylcyclohexane	853.38	812000	0.0014245	0.708
4443-57-6	3-cyclohexyleicosane	853.38	812000	0.0014245	0.708
4443-61-2	9-cyclohexyleicosane	853.38	812000	0.0014245	0.708
4444-68-2	diethylbutylamine	577.33	2635000	0.0005215	0.481
4445-06-1	octadecylcyclohexane	833.93	909000	0.0013125	0.742
4445-07-2	octadecylbenzene	834	1160000	0.00125	0.951
4445-08-3	9-(4-tolyl)octadecane	841.84	926000	0.0013275	0.778
4454-05-1	3,4-dihydro-2-methoxy-2H-pyran	599	3930000	0.000331	0.367
4455-26-9	methyldioctylamine	744.03	1235000	0.0010091	0.818
4457-00-5	hexylcyclopentane	667.67	2281000	0.0005925	0.442
4457-71-0	3-methyl-1,5-pentanediol	682	3897000	0.0004035	1.214
4457-72-1	1,5-dibromo-3-methylpentane	684.21	3682000	0.0004895	0.526
4458-31-5	diethylpropylamine	553.45	2916000	0.0004655	0.437
4458-32-6	methylethylpropylamine	534.36	3243000	0.0004095	0.392
4461-41-0	2-chloro-2-butene	532.24	3967000	0.0002888	0.242
4461-48-7	4-methyl-2-pentene	506.59	3205000	0.0003523	0.25
4468-42-2	(1-ethylbutyl)benzene	697.15	2361000	0.000602	0.437
4468-93-3	2-(2-ethylbutoxy)ethanol	636	2640000	0.0005259	
44745-29-1	(S)-2-heptylamine	565.35	2919000	0.0004593	0.409
4481-30-5	2-phenyl-3-methylbutane	665.6	2693000	0.0005315	0.383
44829-76-7	5-methyl-1-hepteN-3-one	635	3160000	0.0004518	
4485-09-0	4-nonanone	629.65	2467000	0.0005338	0.541
4485-13-6	4-propyl-3-heptene	616.98	2185000	0.0005813	0.457
4485-16-9	4-methyl-3-heptene	564.74	2694000	0.0004588	0.328
4485-77-2	10,11-dithiaeicosane	802.3	1179000	0.0011515	0.832
44855-57-4	2-octanamine, (±)	601.45	2652000	0.0005176	0.5
44914-03-6	2-methylbutyl acrylate	616	2600000	0.0004705	
44976-81-0	N,N-diisopropylisobutylamine	644.56	2159000	0.0006241	0.585
44979-90-0	diethylhexylamine	617.59	2184000	0.0006335	0.568
4500-58-7	o-ethylthiophenol	722.65	3877000	0.0004295	0.374
45124-35-4	diethylnonylamine	661.69	1696000	0.0008015	0.684
4516-69-2	1,1,3-trimethylcyclopentane	571.3	3107000	0.0004215	0.252
4516-90-9	2-methyl-3-buteN-1-ol	573	4550000	0.0002584	
45165-81-9	methyltridecylamine	710.2	1560000	0.00084	0.755
452-86-8	1,2-dihydroxy-4-methylbenzene	791.27	6132000	0.0001875	0.565
45223-18-5	1,16-dibromohexadecane	808.08	1470000	0.0010495	0.889
45275-74-9	dimethyleicosylamine	802.46	923000	0.0013055	0.79
45313-33-5	hexatriacontylamine	1047.57	469000	0.0020805	
45324-58-1	trieicosylamine	1343.51	302000	0.0032802	
4534-74-1	4-ethylcyclohexanol	645	3590000	0.0004482	
4535-61-9	(Z)-5-hepteN-2-one	615	3560000	0.0003913	
4535-66-4	N,N-diisobutylethanolamine	770	2700000	0.0006014	
4536-23-6	2-methylhexanoic acid, (±)	666	3110000	0.000454	0.696
4537-13-7	(1-methylnonyl)benzene	738.32	1696000	0.0008523	0.659
4543-96-8	N,N,N'-trimethyl-1,3-propanediamine	663	3810000	0.0004084	0.65
4549-31-9	1,7-dibromoheptane	700.05	3288000	0.0005455	0.571
4549-32-0	1,8-dibromooctane	716.02	2954000	0.0006015	0.616
4549-33-1	1,9-dibromononane	729.44	2668000	0.0006575	0.659
4549-74-0	3-methyl-1,3-pentadiene	526.51	3494000	0.0003324	0.25
4553-62-2	methylglutaronitrile	742	2880000	0.000404	0.638
4588-18-5	2-methyl-1-octene	593	2380000	0.000508	0.406
460-12-8	biacetylene	478.02	5863000	0.0001835	0.1
460-13-9	1-fluoropropane	422	4157000	0.0002215	0.227
460-19-5	cyanogen	399.9	6303000	0.00014452	0.312
460-34-4	1,1,1-trifluorobutane	425.8	3140000	0.000302	0.368
460-36-6	1,1,1,3-tetrafluoropropane	457.1	3599000	0.0002645	0.306
460-73-1	1,1,1,3,3-pentafluoropropane	427.16	3651000	0.0002597	0.33
4609-87-4	1-nitrodecane	716.97	2131000	0.0006775	0.725
4609-89-6	2-nitropentane	611	3100000	0.000391	0.462
461-58-5	cyanoguanidine	834	5340000	0.000329	0.692
4613-11-0	meso-2,3-diphenylbutane	778.3	2200000	0.000777	0.452
4614-03-3	2-sec-butylnaphthalene	818.49	2518000	0.0006275	0.508
4616-73-3	eicosanenitrile	813.13	1000000	0.0011815	0.829
462-06-6	fluorobenzene	560.09	4551000	0.000269	0.247
462-18-0	7-tridecanone	707.26	1732000	0.0007695	0.727
462-39-5	1,3-difluoropropane	480.87	3926000	0.0002395	0.292
462-94-2	1,5-pentanediamine	637.67	4210000	0.000358	0.591
462-95-3	diethoxymethane	524	3280000	0.000349	0.43
4620-70-6	2-[tert-butylamino]ethanol	681	3440000	0.000436	0.97
4621-04-9	4-(1-methylethyl)cyclohexanol	655	3390000	0.0004788	
4628-21-1	1-chloro-cis2-butene	553.11	3971000	0.0002885	0.252
463-11-6	1-fluorooctane	580.5	2350000	0.000498	0.479
463-18-3	1-fluorononane	602.9	2150000	0.000553	0.518
463-40-1	linolenic acid	780	1440000	0.00107	1.186
463-49-0	allene	394	5250000	0.000165	0.104
463-51-4	ketene	370	5810000	0.000144	0.126
463-58-1	carbonyl sulfide	378.8	6349000	0.0001351	0.097
463-72-9	carbamic chloride	517	7380000	0.000201	0.445
463-82-1	neopentane	433.8	3196000	0.000307	0.196
4630-06-2	DL-6-methyl-5-hepteN-2-ol	615	3100000	0.0003875	
464-06-2	2,2,3-trimethylbutane	531.17	2954000	0.000398	0.25
464-07-3	3,3-dimethyl-2-butanol	566.4	3450000	0.000374	0.496
4654-26-6	bis(2-ethylhexyl) terephthalate	855	1160000	0.00144	1.09
4655-34-9	isopropyl methacrylate	592.33	2830000	0.000428	0.432
4669-01-6	pentadecylcyclopentane	780	1020000	0.0010965	0.833
4683-94-7	2-methyl-trans-decahydronaphthalene	701.48	2638000	0.0005325	0.331
4701-36-4	(1-ethyl-1-propenyl)benzene	703	2800000	0.0005213	
4704-31-8	vinyl decanoate	694	2150000	0.0006198	
4706-81-4	2-tetradecanol	731.4	1730000	0.000823	0.694
4706-89-2	1,3-dimethyl-4-isopropylbenzene	674.93	2590000	0.0005375	0.411
4706-90-5	1,3-dimethyl-5-isopropylbenzene	668.35	2590000	0.0005375	0.411
471-43-2	1,1-dichloro-2,2-difluoroethane	515.98	4136000	0.000271	0.112
471-77-2	neoabietic acid	812	1670000	0.000998	0.86
473-75-6	2-amino-3-methyl-1-butanol	626.41	3790000	0.000368	0.841
473-91-6	1,2,3-trimethylcyclopentene	602.71	3192000	0.0004105	0.315
4730-22-7	6-methyl-2-heptanol	601.18	2835000	0.0004905	0.773
4737-41-1	1-chloro-2-ethylbutane	587.51	3009000	0.0004145	0.343
4740-00-5	3-methylthiacyclopentane	646.2	4306000	0.0003025	0.229
4747-07-3	1-methoxy-hexane	558.21	2829000	0.0004285	0.307
4747-21-1	methylisopropylamine	487.6	200000	0.00029	0.589
475-03-6	1,2,3,4-tetrahydro-1,1,6-trimethylnaphthalene	749.21	2513000	0.0006045	0.468
4753-80-4	thiacycloheptane	640.07	4374000	0.0003915	0.291
4773-83-5	1,2,3-trimethylindene	726	2770000	0.000529	0.441
4784-77-4	1-bromo-2-butene	568.74	4555000	0.0003018	0.301
4786-20-3	2-butenenitrile	573	3880000	0.0002678	0.364
4789-40-6	2,5-di-tert-butylfuran	670	2670000	0.000558	
479-45-8	N-methyl-N,2,4,6-tetranitroaniline	828	2610000	0.000665	1.278
4798-44-1	1-hexeN-3-ol	587	3900000	0.0003038	
4798-46-3	5-methyl-1-hexeN-3-ol	601	3500000	0.000341	
4798-60-1	2-methyl-4-hexeN-3-ol	601	3500000	0.000341	
4798-61-2	2-octeN-4-ol	615	3100000	0.0003875	
4798-62-3	6-methyl-2-hepteN-4-ol	615	3100000	0.0003875	
4798-64-5	7-methyl-2-octeN-4-ol	629	2700000	0.0004473	
4806-58-0	1,cis-2,cis-3-trimethylcyclopropane	520.06	3424000	0.0003365	0.234
4806-59-1	1,cis-2,trans-3-trimethylcyclopropane	510.4	3424000	0.0003365	0.234
4806-61-5	ethylcyclobutane	528.1	3723000	0.0003205	0.256
4810-09-7	3-methyl-1-heptene	557.26	2668000	0.0004585	0.357
4815-57-0	1,4-dipropylbenzene	697.15	2361000	0.000602	0.437
483-78-3	1,6-dimethyl-4-isopropylnaphthalene	795.4	2274000	0.0006895	0.575
4850-28-6	1,cis-2,trans-4-trimethylcyclopentane	582.21	2854000	0.0004225	0.265
4850-32-2	sec-butylcyclopentane	626.59	2788000	0.0004745	0.33
486-34-0	1,2,7-trimethylnaphthalene	776.9	2671000	0.0005775	0.492
4860-03-1	1-chlorohexadecane	762.66	1284000	0.0009805	0.746
4862-03-7	1-chloropentadecane	750.73	1377000	0.0009245	0.722
488-17-5	1,2-dihydroxy-3-methylbenzene	776.37	6132000	0.0001875	0.565
488-23-3	1,2,3,4-tetramethylbenzene	693	3110000	0.000475	0.417
488-70-0	2,3,4,5-tetramethylphenol	757.92	3262000	0.0004215	0.538
488-71-1	2,3,4,6-tetramethylaniline	690	2985000	0.0005255	0.69
488-92-6	3-ethyl-4-methyl-1H-pyrrole	650	4050000	0.0003503	
4886-77-5	3-methyl-(1-thiaethyl)-benzene	718.95	3660000	0.0004295	0.371
4887-30-3	octyl hexanoate	695	1660000	0.0008177	
4894-61-5	1-chloro-trans-2-butene	554.5	3971000	0.0002885	0.252
4894-62-6	3-methyl-1,5-heptadiene	586	3400000	0.0003691	
490-65-3	1-methyl-7-isopropylnaphthalene	773.88	2480000	0.0006275	0.507
4900-30-5	1,8-nonadiene	616	3280000	0.0004007	
4905-79-7	1,1,1-trichlorooctane	693.91	2316000	0.0006195	0.477
491-18-9	4-ethyl-2,3-dimethyl-1H-pyrrole	670	3750000	0.00039	
491-35-0	4-methylquinoline	790.59	3829000	0.0004585	0.452
4911-54-0	ethyl 4-methyl-4-pentenoate	616	2600000	0.0004705	
4911-70-0	2,3-dimethyl-2-pentanol	571.87	3188000	0.0004295	0.662
4913-13-7	3,5,N,N-tetramethylaniline	690	2985000	0.0005255	0.69
4914-89-0	3-methyl-cis3-hexene	546.75	2976000	0.0004085	0.307
4914-91-4	3,4-dimethyl-cis2-pentene	542.11	3002000	0.0004025	0.278
4914-92-5	3,4-dimethyl-trans-2-pentene	545.47	3002000	0.0004025	0.278
4920-99-4	1-ethyl-3-isopropylbenzene	665.63	2630000	0.0005375	0.412
4923-77-7	1-methyl-cis2-ethylcyclohexane	632.03	2741000	0.0004715	0.305
4923-78-8	1-methyl-trans-2-ethylcyclohexane	625.55	2741000	0.0004715	0.305
4926-76-5	1-methyl-trans-3-ethylcyclohexane	624.52	2741000	0.0004715	0.305
4926-78-7	1-methyl-cis4-ethylcyclohexane	624.52	2741000	0.0004715	0.305
4926-90-3	1-methyl-1-ethylcyclohexane	633.38	2980000	0.0004705	0.292
493-01-6	cis-decahydronaphthalene	703.6	3200000	0.00048	0.279
493-02-7	trans-decahydronaphthalene	687	3200000	0.00048	0.299
4938-52-7	1-hepteN-3-ol	601	3500000	0.000341	
4946-13-8	p-ethylthiophenol	724.15	3877000	0.0004295	0.374
49542-74-7	2,4,8-trimethylnonane	632.08	1817000	0.0006895	0.491
49557-09-7	2,5,8-trimethylnonane	633.44	1817000	0.0006895	0.491
4957-14-6	4',4"-dimethyldiphenylmethane	797.05	2436000	0.0006595	0.521
49598-54-1	2,2-dimethyldodecane	679.98	1546000	0.0008085	0.566
496-11-7	indane	684.9	3950000	0.000381	0.309
496-14-0	phthalan	700	4285000	0.0003562	0.372
496-73-1	1,3-dihydroxy-4-methylbenzene	809.15	6132000	0.0001875	0.565
496-78-6	2,4,5-trimethylphenol	737.64	3718000	0.0003655	0.494
49623-50-9	1,3-dibromo-2-methylbutane	659.19	4195000	0.0004275	0.448
497-03-0	trans-2-methyl-2-butenal	570	4100000	0.0002715	
497-06-3	3-butene-1,2-diol	679.44	5200000	0.000279	1.174
497-39-2	2,4-di-tert-butyl-5-methylphenol	738.5	2090000	0.000757	0.793
4974-27-0	2,6-octadiene	586	3400000	0.0003691	
498-02-2	1-(4-hydroxy-3-methoxyphenyl)ethanone	786	3650000	0.000467	0.786
498-23-7	citraconic acid	829	4240000	0.00034	0.927
498-66-8	2-norbornene	583	3930000	0.000337	0.159
4981-99-1	3-methylhentriacontane	920.46	543000	0.0019244	
4984-01-4	3,7-dimethyl-1-octene	616.98	2185000	0.0005813	0.457
4984-22-9	(R)-(-)-1-methoxy-2-propanol	569	4240000	0.0002973	0.759
49852-35-9	6-methyl-2-hepteN-4-one	635	3160000	0.0004518	
49859-87-2	dimethylnonadecylamine	791.64	979000	0.0012495	0.804
499-75-2	2-methyl-5-propylphenol	733.95	3376000	0.0004215	0.541
50-00-0	formaldehyde	408	6586000	0.000105	0.282
50-21-5	lactic acid	675	5960000	0.000251	1.022
50-70-4	sorbitol	868	4640000	0.000483	2.213
50-78-2	2-(acetyloxy)benzoic acid	765	3270000	0.000469	0.833
50-81-7	ascorbic acid	783	5290000	0.000339	2.389
50-99-7	glucose	755	4820000	0.000414	2.387
500-00-5	4-methyl-1-(1-methylethyl)cyclohexene	640	2600000	0.000511	
5008-69-5	4-methyl-2-thiapentane	585	3400000	0.00037	0.271
5008-72-0	4-methyl-3-thiahexane	601.01	3196000	0.0004195	0.351
5008-73-1	2-methyl-3-thiahexane	598.65	3196000	0.0004195	0.351
5009-11-0	1-hexeN-4-yne	525	4000000	0.0002843	
501-65-5	diphenylacetylene	832	2900000	0.000611	0.384
502-44-3	epsiloN-caprolactone	771	4630000	0.000352	0.442
502-56-7	5-nonanone	640	2320000	0.00056	0.514
502-59-0	6-methyl-N-isopentyl-2-heptanamine	694.76	1671000	0.0007883	0.685
502-73-8	16-hentriacontanone	860	600000	0.0015403	
5026-76-6	6-methyl-1-heptene	558	2600000	0.000453	0.356
50273-84-2	5-bromo-cis2-pentene	600.04	4021000	0.0003575	0.357
503-17-3	dimethylacetylene	473.2	4870000	0.000221	0.239
503-30-0	1,3-propylene oxide	520	5750000	0.000188	0.201
503-46-8	1,5,5-trimethylcyclohexene	620	2860000	0.0004518	
503-60-6	1-chloro-3-methyl-2-butene	583.57	3552000	0.0003455	0.271
503-64-0	cis-2-butenoic acid	647	4700000	0.00027	0.572
503-74-2	3-methylbutanoic acid	629.09	3688000	0.0003116	0.682
50341-35-0	2,2-dibromobutane	636.75	4789000	0.0003725	0.369
504-15-4	1,3-dihydroxy-5-methylbenzene	834.47	6132000	0.0001875	0.565
504-53-0	18-pentatriacontanone	900	500000	0.0016389	
504-57-4	10-nonadecanone	766.51	1127000	0.0011055	0.843
504-60-9	1,3-pentadiene; (cis+trans)	492.61	3770000	0.0002833	0.153
504-61-0	trans-2-buteN-1-ol	559	5220000	0.0002232	
504-63-2	1,3-propanediol	724	9500000	0.000217	0.74
504-64-3	carbon suboxide	431.8	5119000	0.00018375	
50422-80-5	5-methyl-cis3-heptene	560.58	2696000	0.0004575	0.347
50468-22-9	3-methyl-1,2-butanediol	629.12	4456000	0.0003415	1.142
505-22-6	1,3-dioxane	590	5150000	0.000239	0.289
505-32-8	3,7,11,15-tetramethyl-1-hexadeceN-3-ol	783	1250000	0.0010795	
505-48-6	octanedioic acid	809	2820000	0.000522	1.147
505-57-7	2-hexenal	590	3700000	0.0003101	
505-92-0	4-dodecenoic acid	816	2000000	0.0007232	
5058-19-5	2-butylpyridine	673	3000000	0.0004694	
50586-18-0	cis-1-chloro-1-hexene	583.61	3160000	0.0004005	0.341
50586-19-1	trans-1-chloro-1-hexene	583.61	3160000	0.0004005	0.341
506-05-8	1-fluoroundecane	641.6	1810000	0.000663	0.588
506-12-7	heptadecanoic acid	793	1430000	0.000969	1.028
506-30-9	eicosanoic acid	821	1240000	0.00113	1.087