CASRN	Chemical	Tc	Pc	Vc	omega
5441-52-1	3,5-dimethylcyclohexanol	645	3590000	0.0004482	
54410-69-4	(3-methylpentyl)benzene	697.15	2361000	0.000602	0.437
54411-01-7	1-methyl-2-pentylcyclohexane	691.81	2133000	0.0006405	0.456
5445-24-9	1-propylcyclohexanol	655	3390000	0.0004788	
5445-31-8	2-methyl-3-nonanone	656.59	2236000	0.0006015	0.612
54462-68-9	2,5-dibromohexane, (R*,R**)-(±)-	684.21	3682000	0.0004895	0.526
54462-70-3	1,4-dibromo-2,3-dimethylbutane	684.21	3682000	0.0004895	0.526
54484-63-8	1,4-dichloro-2-ethylbenzene	735	3300000	0.000446	
5451-52-5	decyl formate	672	1990000	0.000697	0.712
5451-63-8	tetradecyl formate	736.7	1360000	0.000923	1.13
5451-75-2	octadecyl formate	774.9	1010000	0.001155	
5451-80-9	heptyl pentanoate	667	1893000	0.0007173	0.699
5451-85-4	octyl pentanoate	682	1740000	0.000776	0.759
5451-92-3	nonyl formate	656	2140000	0.000639	0.65
54518-00-2	(2,4-dimethylpentyl)benzene	714	2180000	0.000648	0.529
5454-09-1	decyl butanoate	720.2	1390000	0.000867	0.62
5454-19-3	decyl propanoate	707.6	1510000	0.000809	0.835
5454-24-0	undecyl formate	700	1740000	0.000749	0.675
5454-28-4	butyl heptanoate	652	2047000	0.0006587	0.639
5454-79-5	cis-3-methylcyclohexanol	625	3790000	0.000374	0.694
54549-80-3	1,1-dimethyl-2-ethylcyclopentane	607.98	2799000	0.0004775	0.296
5458-33-3	undecyl propanoate	720.9	1400000	0.000867	0.982
5458-54-8	1,2,3,4-tetrahydro-5-isobutylnaphthalene	760.47	2287000	0.0006605	0.511
5458-59-3	isopropyl octanoate	652	2047000	0.0006587	0.639
5459-93-8	cyclohexylethylamine	642	3100000	0.0004487	
5461-02-9	undecyl butanoate	732.5	1300000	0.000925	
54616-49-8	4-ethyl-cis2-hexene	562.03	2696000	0.0004575	0.347
54630-50-1	5-methyl-2-heptanol	601.18	2835000	0.0004905	0.773
54630-82-9	DL-2,4-dimethyl-1,5-pentanediol	660.11	3501000	0.0004535	1.212
54638-10-7	sec-pentyl acetate (R)	583.38	2813000	0.0004416	0.443
5465-09-8	3,4-dimethylcyclohexanone	670	3250000	0.0004217	
54653-26-8	2,2-dibromopentane	661.45	4211000	0.0004285	0.414
54653-27-9	3,3-dibromopentane	656.98	4211000	0.0004285	0.414
54653-28-0	3-bromo-trans-2-pentene	581.59	4047000	0.0003585	0.331
54653-29-1	2-bromo-cis2-pentene	584.62	4047000	0.0003585	0.331
54653-30-4	2-bromo-trans-2-pentene	584.62	4047000	0.0003585	0.331
54676-39-0	2-butyl-1,1,3-trimethylcyclohexane	708.63	1956000	0.0006965	0.498
5468-56-4	1-ethylpropyl propanoate	597	2610000	0.000493	0.704
547-63-7	methyl isobutanoate	540.7	3432000	0.000339	0.364
547-64-8	methyl lactate	584	4480000	0.000301	0.77
54774-89-9	2-methyl-1-propylnaphthalene	812.35	2460000	0.0006335	0.537
54813-77-3	N-ethyl-N-isopropylaniline	700	2750000	0.0005661	
54833-30-6	1,1-dicyclohexylpentane	776.31	1680000	0.0008535	0.551
54833-31-7	1,5-dicyclohexylpentane	776.31	1680000	0.0008535	0.551
54833-34-0	1,3-dicyclohexyl-2-ethylpropane	776.31	1680000	0.0008535	0.551
54837-90-0	4-methyl-N-propylaniline	690	2985000	0.0005255	0.69
54877-00-8	5-methyl-2,4-hexanediol	692.59	3535000	0.0004475	1.178
54890-00-5	1,1-dicyclohexylbutane	768.14	1820000	0.0007975	0.512
54922-86-0	ethylene glycol diisobutyl ether	672	2340000	0.0006245	
54934-90-6	2,2-dicyclohexylpropane	766.86	1979000	0.0007415	0.471
54934-91-7	1,1-dicyclohexylpropane	766.86	1979000	0.0007415	0.471
5497-67-6	2,2-dimethyl-4-pentenal	610	3300000	0.000358	
55-21-0	benzamide	824	5050000	0.000346	0.559
55-63-0	nitroglycerine	680	3000000	0.000419	1.184
5502-88-5	1-methyl-4-isopropylcyclohexene	640	2600000	0.000511	
55030-20-1	1,1-dicyclohexylhexane	783.63	1555000	0.0009095	0.589
55073-86-4	2,2,5,5-tetramethyl-3-hexanol	597.94	2403000	0.0005865	0.693
551-88-2	3-nitropentane	611	3100000	0.000391	0.462
5510-99-6	2,6-di-sec-butylphenol	765	2280000	0.000704	0.631
55124-79-3	9-hexylheptadecane	803.12	852000	0.0013871	0.734
55156-16-6	3-methyl-2-pentanone, (±)	576.61	3288000	0.0003687	0.362
552-30-7	trimellitic anhydride	890	4080000	0.000462	0.997
55255-57-7	1-decyl-[1,2,3,4-tetrahydronaphthalene]	814.16	1406000	0.0009965	0.73
55268-63-8	1,1-diphenyltetradecane	842.2	1220000	0.001414	0.892
55282-10-5	11-(2,2-dimethylpropyl)heneicosane	839.06	725000	0.0015662	
55282-12-7	3-ethyl-5-(2-ethylbutyl)octadecane	839.06	725000	0.0015662	
55282-14-9	9-butyldocosane	839.06	725000	0.0015662	
55282-15-0	7-butyldocosane	839.06	725000	0.0015662	
55282-16-1	5-butyldocosane	839.06	725000	0.0015662	
55282-17-2	3-ethyltetracosane	839.06	725000	0.0015662	
55319-83-0	9-octyldocosane	891.09	595000	0.001805	
55320-06-4	11-decylheneicosane	904.88	569000	0.0018647	
55334-08-2	1,1-dicyclohexyltetradecane	840.47	916000	0.0013575	0.731
55373-86-9	7-hexyldocosane	864.27	655000	0.0016856	
554-12-1	methyl propanoate	530.6	4004000	0.000282	0.347
554-14-3	2-methylthiophene	609	4910000	0.000275	0.239
55429-84-0	11-decyltetracosane	950.88	498000	0.0020438	
55454-22-3	cis-2-hepteN-1-ol	601	3500000	0.000341	
55499-04-2	2,2,3-trimethylnonane	648.03	1822000	0.0006905	0.461
555-10-2	βphellandrene	648	2820000	0.000487	0.374
55505-23-2	2,2,3-trimethyl-1-butanol	596.85	3188000	0.0004295	0.662
55505-24-3	4-methyl-2-isopropyl-1-pentanol	615.26	2535000	0.0005555	0.784
55505-26-5	8-methyl-1-nonanol	644	2280000	0.000591	0.913
55517-73-2	13-dodecylhexacosane	1001.41	422000	0.0022826	
55517-89-0	13-undecylpentacosane	986.42	458000	0.0021632	
5557-31-3	9-octadecene	746.71	1265000	0.0010378	0.755
556-24-1	methyl isopentanoate	572.95	3070000	0.0004	0.412
556-52-5	(±)-glycidol	630	5950000	0.000216	0.672
556-56-9	3-iodo-1-propene	595.81	4529000	0.0002725	0.202
556-67-2	octamethylcyclotetrasiloxane	586.5	1332000	0.00097	0.589
556-69-4	octadecamethyloctasiloxane	688.9	624000	0.002466	0.984
556-82-1	3-methyl-2-buteN-1-ol	573	4550000	0.0002584	
5561-99-9	cis-11-eicosenoic acid	966	1400000	0.0011947	
5563-78-0	2-methyl-5-isopropylcyclohexanol, [1R-(1alpha,2alpha,5beta)]	665	3090000	0.0005298	
55665-79-7	4-methyl-3-hexenoic acid	716	2900000	0.0004518	
557-00-6	propyl isopentanoate	599.25	2513000	0.000499	0.472
557-17-5	methyl propyl ether	476.25	3801000	0.000276	0.277
557-31-3	allyl ethyl ether	505.58	3597000	0.0003135	0.323
557-36-8	2-iodooctane	665.98	2884000	0.0005025	0.857
557-59-5	tetracosanoic acid	870	910000	0.0013922	
557-61-9	1-octacosanol	861.6	840000	0.0016111	
557-91-5	1,1-dibromoethane	628	6030000	0.000276	0.125
557-93-7	2-bromo-1-propene	510.32	5176000	0.0002475	0.253
557-98-2	2-chloro-1-propene	478	4710000	0.000234	0.152
55751-54-7	2-sec-butylaniline	690	2985000	0.0005255	0.69
55757-34-1	1,1,1-trifluorononane	578.4	2050000	0.000577	0.505
558-13-4	carbon tetrabromide	724.91	9631000	0.0003285	0.501
558-17-8	2-iodo-2-methylpropane	587.9	3882000	0.0003365	0.179
558-30-5	2,2-dimethyloxirane	521	4660000	0.000242	0.171
558-37-2	3,3-dimethyl-1-butene	480	3290000	0.000333	0.228
558-43-0	2-methyl-1,2-propanediol	611.21	5109000	0.0002865	1.062
5582-82-1	3-methyl-3-heptanol	589.67	2844000	0.0004915	0.738
55837-18-8	2-(4-isobutylphenyl)butyric acid	713	2250000	0.0006	0.877
559-40-0	octafluorocyclopentene	465.23	3023000	0.0003517	0.11
55930-45-5	1,4-diiodopentane	744.5	3326000	0.0004855	0.332
56-23-5	carbon tetrachloride	556.35	4560000	0.000276	0.193
56-55-3	benz[a]anthracene	979	2390000	0.00069	0.569
56-81-5	glycerol	850	7500000	0.000264	0.513
56-86-0	L-glutamic acid	782	4130000	0.00042	1.184
56-87-1	lysine	821	3530000	0.000502	1.013
560-21-4	2,3,3-trimethylpentane	573.5	2820000	0.000455	0.29
560-22-5	3,3,4-trimethyl-1-pentene	561.62	2721000	0.0004475	0.268
560-23-6	2,3,3-trimethyl-1-pentene	565.71	2713000	0.0004545	0.272
56021-63-7	3,trans-5-dimethylcyclohexene	597.92	3163000	0.0004015	0.26
56039-55-5	3,cis-4-dimethylcyclopentene	557.42	3432000	0.0003535	0.245
56065-42-0	3,5-dimethyl-3-octanol	619.15	2359000	0.0005975	0.788
56065-43-1	4,6-dimethyl-4-octanol	616.49	2359000	0.0005975	0.788
5609-09-6	trans-3-hepteN-2-one	615	3560000	0.0003913	
56103-67-4	2,6-di-tert-pentyl-4-methylphenol	760	1850000	0.0008091	
56134-53-3	1-chlorohexacosane	865.98	711000	0.0015405	
56164-20-6	tridecyl butanoate	754.5	1140000	0.001041	
5617-41-4	heptylcyclohexane	708.63	1956000	0.0006965	0.498
5617-42-5	heptylcyclopentane	679	1940000	0.0006485	0.515
562-49-2	3,3-dimethylpentane	536.4	2950000	0.000414	0.268
56255-50-6	2-methyl-1,2-hexanediol	644.63	3514000	0.0004545	1.175
56298-90-9	4-methyl-2-heptanol	600.77	2835000	0.0004905	0.773
563-16-6	3,3-dimethylhexane	562	2650000	0.000443	0.32
563-45-1	3-methyl-1-butene	452.7	3530000	0.000305	0.21
563-46-2	2-methyl-1-butene	465	3400000	0.000292	0.23
563-47-3	3-chloro-2-methyl-1-propene	536.47	3946000	0.0002905	0.237
563-52-0	3-chloro-1-butene	524.61	3961000	0.0002835	0.233
563-54-2	1,2-dichloropropene	577	4380000	0.000277	0.206
563-57-5	3,3-dichloropropene	577	4380000	0.000277	0.206
563-58-6	1,1-dichloropropene	577	4380000	0.000277	0.206
563-78-0	2,3-dimethyl-1-butene	501	3320000	0.000335	0.233
563-79-1	2,3-dimethyl-2-butene	528	3320000	0.000335	0.224
563-80-4	methyl isopropyl ketone	553.4	3800000	0.00031	0.321
5634-22-0	docosylbenzene	870.93	782000	0.0014955	
5634-30-0	dodecylcyclopentane	755.17	1403000	0.0009285	0.669
5636-65-7	5-methyl-4-hexenoic acid	716	2900000	0.0004518	
5637-96-7	(3-octylundecyl)benzene	841.84	926000	0.0013275	0.778
56392-13-3	ethylpentadecylamine	744.2	1280000	0.001005	0.891
56399-98-5	5-iodo-trans-2-pentene	624.39	3594000	0.0003835	0.286
564-02-3	2,2,3-trimethylpentane	563.5	2730000	0.000436	0.297
564-03-4	3,4,4-trimethyl-1-pentene	560.14	2721000	0.0004475	0.268
564-04-5	2,2-dimethyl-3-pentanone	580.9	3059000	0.0004225	0.387
565-59-3	2,3-dimethylpentane	537.3	2910000	0.000393	0.296
565-60-6	3-methyl-2-pentanol	578	3470000	0.000373	0.576
565-61-7	3-methyl-2-pentanone	573	3320000	0.000369	0.389
565-62-8	3-methyl-3-penteN-2-one	595	3960000	0.0003428	
565-63-9	cis-2-methyl-2-butenoic acid	676	4083000	0.0003225	0.389
565-67-3	2-methyl-3-pentanol	564.4	3280000	0.000378	0.576
565-69-5	ethyl isopropyl ketone	567	3320000	0.000369	0.389
565-75-3	2,3,4-trimethylpentane	566.4	2730000	0.00046	0.315
565-76-4	2,3,4-trimethyl-1-pentene	557.76	2595000	0.0004835	0.308
565-77-5	2,3,4-trimethyl-2-pentene	574.12	2724000	0.0004595	0.297
565-78-6	3,4-dimethyl-2-pentanone	586.69	3049000	0.0004215	0.42
565-80-0	2,4-dimethyl-3-pentanone	576	3020000	0.000416	0.405
5650-75-9	2-methylenepentanoic acid	696	3300000	0.0003894	
56523-26-3	3,7-dimethyl-2,4-octadiene	646	3000000	0.0004577	
56535-63-8	4-bromo-cis2-pentene	592.38	4062000	0.0003515	0.326
56539-66-3	3-methoxy-3-methylbutanol	600	3240000	0.0004073	0.817
56578-18-8	trans-5-deceN-1-ol	643	2300000	0.0005276	
5665-74-7	DL-2-amino-1-hexanol	681	3440000	0.000436	0.97
5668-93-9	3-ethylbiphenyl	801	3130000	0.000593	0.482
56688-75-6	3-methylcyclohexene, (±)	583.04	3678000	0.0003465	0.241
5675-22-9	1,4-heptadiene	556	3450000	0.0003478	
5675-51-4	1,12-dodecanediol	745.3	2093000	0.0007455	1.336
56800-09-0	1,1-dichloro-2-butene	640	3798000	0.000332	0.302
5683-44-3	3-methyl-2,4-pentanediol	685.78	3976000	0.0003915	1.143
569-41-5	1,8-dimethylnaphthalene	792	3100000	0.000517	0.395
56961-86-5	1,2,5-trichloro-3-methylbenzene	737	3340000	0.000447	0.26
57-10-3	hexadecanoic acid	785	1510000	0.000917	0.983
57-11-4	octadecanoic acid	804	1360000	0.00102	1.036
57-13-6	urea	705	9050000	0.000218	0.62
57-50-1	sucrose	1086	2690000	0.000761	0.365
57-55-6	1,2-propanediol (propylene glycol)	626	6100000	0.000239	1.107
57-57-8	βpropiolactone	686	6910000	0.000206	0.358
57-88-5	cholesterol	959	1250000	0.00135	0.948
57018-52-7	1-tert-butoxy-2-propanol	567	2990000	0.000433	0.774
5707-44-8	4-ethylbiphenyl	806	3130000	0.000593	0.427
57074-37-0	cis-4-deceN-1-ol	643	2300000	0.0005276	
57093-84-2	3-ethyl-2-thiapentane	598.38	3196000	0.0004195	0.351
57094-91-4	1-iodohentriacontane	993.86	604000	0.0017905	
571-58-4	1,4-dimethylnaphthalene	776.78	3006000	0.0005215	0.443
571-61-9	1,5-dimethylnaphthalene	773.47	3006000	0.0005215	0.443
5715-23-1	3,4-dimethylcyclohexanol	645	3590000	0.0004482	
57223-18-4	1-noneN-3-yne	595	3000000	0.0004264	
57233-31-5	2,2,4-trimethyl-4-heptanol	609.52	2384000	0.0005925	0.724
57246-89-6	rhenium (VII) dioxytrifluoride	690.26			
57253-29-9	1-bromo-2-methyl-cis2-butene	602.84	4047000	0.0003585	0.331
57253-30-2	1-bromo-2-methyl-trans-2-butene	602.84	4047000	0.0003585	0.331
573-98-8	1,2-dimethylnaphthalene	775.34	3006000	0.0005215	0.443
57303-85-2	dimethyl-2-pentylamine	553.21	2941000	0.0004595	0.406
57386-83-1	2,4-dichloro-1,3,5-trimethylbenzene	760	3000000	0.0005052	
57409-53-7	2,3,3-trimethyl-1-pentanol	613.33	2869000	0.0004855	0.706
57456-98-1	2-methylbutanal, (±)	542.02	3760000	0.0003226	0.373
575-37-1	1,7-dimethylnaphthalene	770.6	3006000	0.0005215	0.443
575-41-7	1,3-dimethylnaphthalene	773.76	3006000	0.0005215	0.443
575-43-9	1,6-dimethylnaphthalene	770.6	3006000	0.0005215	0.443
5750-00-5	2-chloro-3,3-dimethylbutane	579.63	3073000	0.0004035	0.254
5756-43-4	1-ethoxy-hexane	583	2460000	0.000487	0.494
576-26-1	2,6-xylenol	701.25	4300000	0.00039	0.455
577-55-9	1,2-diisopropylbenzene	697.15	2361000	0.000602	0.437
57706-88-4	3,7-dimethyl-3-octanol, (±)	629	2355000	0.000598	0.793
57716-79-7	2-ethyl-1,4-butanediol	630.46	3936000	0.0003975	1.179
57757-60-5	dimethyl-1,1-dimethylpropylamine	574.99	2976000	0.0004545	0.344
578-54-1	o-ethylaniline	704	3740000	0.000426	0.462
5780-13-2	meso-2,3-dibromobutane	651.35	4769000	0.0003715	0.403
57859-47-9	3-hexenyl isobutyrate	650	2350000	0.0005402	
5787-28-0	(S)-(1-methylpropyl)benzene	664.65	2897000	0.0004872	0.378
5787-31-5	2-bromobutane, (±)	561.05	4458000	0.0003163	0.289
579-66-8	2,6-diethylaniline	678	3120000	0.000533	0.912
5794-03-6	(+)-camphene	638	2750000	0.000499	0.296
5794-04-7	(-)-camphene	638	2750000	0.000499	0.296
58-08-2	caffeine			0.00051	
58-72-0	triphenylethylene	908	2100000	0.00086	0.6
5802-82-4	methyl hexacosanoate	860	870000	0.001525	
58046-40-5	2,3,6-trimethyl-3-heptanol	618.25	2377000	0.0005915	0.757
58049-91-5	3,3-dimethylcyclopentene	559.35	3768000	0.0003525	0.232
5809-59-6	2-hydroxy-3-butenenitrile	639	4510000	0.000278	0.844
581-40-8	2,3-dimethylnaphthalene	777.78	3006000	0.0005215	0.443
581-42-0	2,6-dimethylnaphthalene	777	3170000	0.00052	0.418
5813-64-9	2,2-dimethylpropylamine	517.1	3460000	0.000346	0.384
58133-26-9	1,1-dibromohexane	684.21	3682000	0.0004895	0.526
5814-85-7	1,2-diphenylpropane	781.16	2530000	0.0006535	0.492
58175-57-8	2-propyl-1-pentanol	607.5	2811000	0.0004965	0.806
582-16-1	2,7-dimethylnaphthalene	778	3170000	0.00052	0.42
58210-03-0	2,3,6-trimethylcyclohexanol	655	3390000	0.0004788	
583-48-2	3,4-dimethylhexane	568.8	2690000	0.000466	0.338
583-53-9	o-dibromobenzene	761	4660000	0.000372	0.293
583-57-3	1,2-dimethylcyclohexane	597.51	2951000	0.000455	0.236
583-58-4	3,4-dimethylpyridine	683.8	4090000	0.000367	0.35
583-59-5	2-methylcyclohexanol; (cis+trans)	635	3790000	0.000414	0.685
583-60-8	2-methylcyclohexanone	650	3550000	0.0003776	
583-61-9	2,3-dimethylpyridine	655.4	4090000	0.000367	0.358
58368-66-4	1-methylbutyl formate	574	3130000	0.000387	0.401
58368-67-5	1-ethylpropyl formate	579	3230000	0.000383	0.375
5837-78-5	ethyl trans-2-methyl-2-butenoate	592.33	2830000	0.000428	0.432
584-02-1	3-pentanol	559.6	3880000	0.000325	0.538
584-03-2	1,2-butanediol	680	5210000	0.000303	0.631
584-84-9	toluene diisocyanate	725	3040000	0.000525	0.658
584-94-1	2,3-dimethylhexane	563.5	2630000	0.000468	0.346
58430-94-7	3,5,5-trimethylhexyl acetate	678.7	1820000	0.000693	0.622
5846-40-2	N-pentapentacontane	1096.75	331000	0.0032975	
5846-43-5	trans-2-propylcyclohexanol	655	3390000	0.0004788	
58474-80-9	3-decenal	670	2200000	0.0005823	
585-07-9	tert-butyl methacrylate	616	2600000	0.0004705	
585-34-2	3-tert-butylphenol	748.61	3514000	0.0004105	0.444
5856-62-2	(S)-(+)-2-amino-1-butanol	571.82	4140000	0.0003	0.711
5856-63-3	(R)-(-)-2-amino-1-butanol	571.82	4140000	0.0003	0.711
5856-66-6	N-tetrapentacontane	1092.55	335000	0.0032378	
5856-67-7	N-heptapentacontane	1105.14	323000	0.0034169	
5857-36-3	2,2,4-trimethyl-3-pentanone	624	2640000	0.000469	0.528
5857-69-2	2,2,3,4,4-pentamethyl-3-pentanol	637.91	2429000	0.0005815	0.629
5857-86-3	cis-2-propylcyclohexanol	655	3390000	0.0004788	
586-62-9	terpinolene	667	2820000	0.000493	0.376
58654-67-4	5-methyl-2-octanone	629.65	2467000	0.0005338	0.541
5867-91-4	methyl propyl sulfate	792	6890000	0.000398	0.162
58670-89-6	2-decyl-1-tetradecanol	831.6	990000	0.0013608	
587-02-0	m-ethylaniline	695.58	3684000	0.000432	0.433
587-03-1	3-methylbenzenemethanol	681	3910000	0.000387	0.751
5870-93-9	heptyl butanoate	675.5	1750000	0.000693	0.496
5876-87-9	1,11-dodecadiene	696	2600000	0.0005602	
58766-17-9	2-chloro-5-methylhexane	621.08	2693000	0.0004765	0.418
5877-76-9	ethylhexadecylamine	754.8	1190000	0.00106	0.907
58795-24-7	5,6-dimethyl-2-heptanol	623.04	2587000	0.0005405	0.782
588-47-6	N-isobutylaniline	690	2985000	0.0005255	0.69
588-59-0	stilbene	788.5	2740000	0.000581	0.481
5881-17-4	3-ethyloctane	613.6	2189000	0.000561	0.446
589-16-2	p-ethylaniline	695.58	3684000	0.000432	0.433
589-18-4	4-methylbenzenemethanol	681	3920000	0.000387	0.748
589-33-3	1-butyl-1H-pyrrole	670	3750000	0.00039	
589-34-4	3-methylhexane	535.2	2810000	0.000404	0.32
589-35-5	3-methyl-1-pentanol	588	3400000	0.00038	0.723
589-37-7	1,3-diaminopentane	637.67	4210000	0.000358	0.591
589-38-8	3-hexanone	582.82	3320000	0.000378	0.38
589-40-2	sec-butyl formate	546	3580000	0.000336	0.349
589-43-5	2,4-dimethylhexane	553.5	2560000	0.000472	0.344
589-53-7	4-methylheptane	561.74	2542000	0.000476	0.371
589-55-9	4-heptanol	583.1	3121000	0.0004405	0.764
589-59-3	2-methylpropyl isopentanoate	614.21	2308000	0.0005096	0.771
589-62-8	4-octanol	604.27	2811000	0.0004965	0.806
589-63-9	4-octanone	624	2640000	0.000469	0.528
589-75-3	butyl octanoate	667	1893000	0.0007173	0.699
589-81-1	3-methylheptane	563.67	2546000	0.000464	0.372
589-82-2	3-heptanol	585.83	3121000	0.0004405	0.764
589-90-2	1,4-dimethylcyclohexane	597.51	2951000	0.000455	0.236
589-91-3	4-methylcyclohexanol; (cis+trans)	635	3790000	0.000414	0.685
589-92-4	4-methylcyclohexanone	650	3550000	0.0003776	
589-93-5	2,5-dimethylpyridine	644.2	3980000	0.000367	0.379
589-98-0	3-octanol	601.72	2811000	0.0004965	0.806
58958-60-4	isostearyl neopentanoate	798	1060000	0.0012047	
59-67-6	3-pyridinecarboxylic acid	760	4640000	0.000349	0.596
590-01-2	butyl propanoate	594.6	2800000	0.000442	0.464
590-13-6	cis-1-bromo-1-propene	523.23	5213000	0.0002455	0.268
590-14-7	1-bromo-1-propene	526.38	5185000	0.0002463	0.265
590-15-8	trans-1-bromo-1-propene	531.77	5213000	0.0002455	0.268
590-18-1	cis-2-butene	435.58	4206000	0.000234	0.203
590-19-2	1,2-butadiene	452	4360000	0.00022	0.166
590-21-6	1-chloro-1-propene	492.64	4604000	0.0002333	0.181
590-35-2	2,2-dimethylpentane	520.5	2770000	0.000416	0.287
590-36-3	2-methyl-2-pentanol	559.5	3470000	0.00038	0.579
590-50-1	4,4-dimethyl-2-pentanone	580.9	3059000	0.0004225	0.387
590-66-9	1,1-dimethylcyclohexane	591.15	2938000	0.00045	0.233
590-67-0	1-methylcyclohexanol	686	4000000	0.000374	0.221
590-73-8	2,2-dimethylhexane	549.8	2530000	0.000478	0.338
590-86-3	3-methylbutanal	544.62	3829000	0.0003265	0.388
590-87-4	2-fluoropentane	493.55	3322000	0.0003275	0.298
590-88-5	1,3-butanediamine	612.33	4610000	0.0003161	0.533
590-94-3	isobutyl isocyanide	563.17	3400000	0.0003355	0.397
59006-05-2	1-fluoro-2,2-dimethylpropane	478.83	3365000	0.0003225	0.238
5908-87-2	ethyl docosanoate	815	1010000	0.0012846	
591-17-3	m-bromotoluene	699	4370000	0.000379	0.318
591-21-9	1,3-dimethylcyclohexane	597.51	2951000	0.000455	0.236
591-22-0	3,5-dimethylpyridine	667.2	3870000	0.000367	0.364
591-23-1	3-methylcyclohexanol; (cis+trans)	635	3790000	0.000414	0.685
591-24-2	3-methylcyclohexanone	650	3550000	0.0003776	
591-34-4	1-methylpropyl propanoate	579	2810000	0.000442	0.602
591-47-9	4-methylcyclohexene	579.3	3678000	0.0003465	0.241
591-48-0	3-methylcyclohexene	578.88	3678000	0.0003465	0.241
591-49-1	1-methylcyclohexene	590.94	3678000	0.0003465	0.241
591-50-4	iodobenzene	721.15	4519000	0.000351	0.247
591-68-4	butyl pentanoate	629	2330000	0.000547	0.596
591-76-4	2-methylhexane	530.4	2740000	0.000421	0.328
591-78-6	2-hexanone	587.61	3287000	0.000378	0.385