CASRN	Chemical	Tc	Pc	Vc	omega
1123-96-2	2-ethyl-3,5-dimethylpyridine	673	3000000	0.0004694	
1124-05-6	1,4-dichloro-2,5-dimethylbenzene	735	3300000	0.000446	
1124-20-5	1-methyl-3-(1-methylethenyl)benzene	665.71	2944000	0.0005255	0.39
1124-62-5	(3-chloropropyl)cyclohexane	662.93	2341000	0.0005685	0.474
1125-80-0	3-methylisoquinoline	778.59	3705000	0.000463	0.428
1126-18-7	2-butylcyclohexanone	710	2750000	0.0005195	
1126-78-9	N-butylaniline	690	2985000	0.0005255	0.69
1127-76-0	1-ethylnaphthalene	776	3320000	0.00052	0.407
1134-40-3	2,3,6,7-tetramethylnaphthalene	810.54	2389000	0.0006335	0.535
1134-62-9	2-butylnaphthalene	780.96	2498000	0.0006335	0.533
113426-22-5	3-methyl-2-octene	593.62	2372000	0.0005248	0.411
113666-64-1	2-undecanol, (±)	696.85	2130000	0.0006505	0.596
1138-52-9	3,5-bis(1,1-dimethylethyl)phenol	765	2280000	0.000704	0.631
1141-38-4	2,6-naphthalenedicarboxylic acid	904	3050000	0.000586	1.16
114180-21-1	1-chloro-2-methylbutane, (±)	556.69	3367000	0.0003557	0.283
115-07-1	propylene	364.9	4600000	0.000185	0.141
115-09-3	methylmercury chloride	741.32	12576000	0.0001284	
115-10-6	dimethyl ether	400.1	5370000	0.00017	0.2
115-11-7	isobutene	417.9	3999000	0.0002389	0.189
115-18-4	2-methyl-3-buteN-2-ol	573	4550000	0.0002584	
115-21-9	trichloroethylsilane	559.95	3330000	0.000414	0.269
115-25-3	octafluorocyclobutane	388.37	2778000	0.0003248	0.356
115-69-5	2-amino-2-methyl-1,3-propanediol	715	3270000	0.000349	1.046
115-70-8	2-amino-2-ethyl-1,3-propanediol	678	3880000	0.000401	1.302
115-76-4	2,2-diethyl-1,3-propanediol	661.45	3514000	0.0004545	1.175
115-77-5	pentaerythritol	780	4780000	0.000381	2.173
115-84-4	2-butyl-2-ethyl-1,3-propanediol	703.86	2794000	0.000573	1.3
115-86-6	triphenyl phosphate	1060	16200000		0.775
115113-98-9	2-hepteN-4-ol, (±)	601	3500000	0.000341	
116-02-9	3,5,5-trimethylcyclohexanol	655	3390000	0.0004788	
116-09-6	1-hydroxy-2-propanone	596	5740000	0.000228	0.774
116-14-3	tetrafluoroethylene	306.45	3944000	0.000172	0.227
116-15-4	hexafluoropropylene	368	2900000	0.000268	0.205
116-53-0	2-methylbutanoic acid	643	3890000	0.000347	0.589
116422-39-0	(S)-(+)-2-methoxypropanol	569	4240000	0.0002973	0.759
116668-40-7	2-deceN-4-yne	615	2700000	0.000486	
116668-44-1	2-methyl-4-hepteN-2-ol	615	3100000	0.0003875	
116668-45-2	2-methyl-3-hepteN-2-ol	615	3100000	0.0003875	
116668-48-5	2,6-dimethyl-2,5-octadiene	646	3000000	0.0004577	
116668-49-6	3,6-dimethyl-2,6-octadiene	646	3000000	0.0004577	
116668-50-9	4-chloro-2-octene	640.48	2574000	0.0005125	0.43
116697-35-9	cis-2-ethylcyclohexanol, (±)	645	3590000	0.0004482	
116723-96-7	1-methylpentyl butanoate, (S)	657.2	1900000	0.000635	0.474
116724-10-8	N-ethyl-2-butanamine, (±)	559.92	3283000	0.0003975	0.404
116724-17-5	2,3,3-trimethylcyclohexanol	655	3390000	0.0004788	
116724-18-6	1,5,6-trimethylcyclohexene	620	2860000	0.0004518	
116781-85-2	2-nitrobutane, (±)	610	3600000	0.0003375	0.402
116783-21-2	1,3-diphenylbutane, (±)	778.3	2200000	0.000777	0.452
116783-23-4	sec-butyl methyl ether	497.32	3409000	0.0003308	0.327
116783-29-0	cis-2,4-dimethylcyclohexanone	670	3250000	0.0004217	
116836-12-5	2-nitrooctane, (±)	690.75	2566000	0.0005655	0.643
116836-13-6	5-methyl-1-octeN-3-one	655	2860000	0.0005112	
116836-16-9	2-amino-3-pentanol	626.41	3790000	0.000368	0.841
116836-30-7	cis-9-undecenoic acid	796	2100000	0.000675	
116836-32-9	1-methylpropyl pentanoate	629	2330000	0.000547	0.596
116836-55-6	sec-butyl butanoate, (S)	599.25	2513000	0.000499	0.472
116908-83-9	2-ethylpentanoic acid, (±)	680	2990000	0.000442	0.717
117-81-7	bis(2-ethylhexyl) phthalate	806	1180000	0.00127	1.142
117-84-0	dioctyl phthalate	806	1180000	0.00127	1.142
117903-18-1	1-ethylpropyl butanoate	610	2390000	0.0005	0.86
118-69-4	2,6-dichlorotoluene	710	3620000	0.000404	0.343
118-72-9	2,6-dimethylthiophenol	730.98	3806000	0.0004295	0.373
118-74-1	hexachlorobenzene	825	2850000	0.000526	0.497
118-90-1	o-toluic acid	751	3860000	0.000397	0.657
118-91-2	o-chlorobenzoic acid	792	4030000	0.000383	0.664
118-93-4	1-(2-hydroxyphenyl)ethanone	707	4450000	0.000394	0.638
118-96-7	2,4,6-trinitrotoluene	828	3040000	0.000572	0.897
1184-58-3	dimethylaluminum chloride	619	3620000	0.00032	0.183
1184-60-7	2-fluoro-1-propene	396.62	4421000	0.0002035	0.193
1184-65-2	germane, trichloro	559.78	4621000	0.00027596	0.17
1185-33-7	2,2-dimethyl-1-butanol	589	3520000	0.000376	0.518
1185-39-3	neoheptanoic acid	680	2990000	0.000442	0.717
1186-31-8	4-methyl-1-hepteN-4-ol	615	3100000	0.0003875	
1186-53-4	2,2,3,4-tetramethylpentane	592.6	2600000	0.00049	0.314
1187-13-9	trans-2-ethyl-2-butenoic acid	696	3300000	0.0003894	
1187-93-5	trifluoromethyl trifluorovinyl ether	363	3110000	0.000289	0.35
1188-02-9	2-methylheptanoic acid	692	2690000	0.000494	0.779
1189-99-7	2,5,5-trimethylheptane	602.9	2219000	0.00055	0.383
119-36-8	methyl salicylate	709	4090000	0.00041	0.581
119-61-9	benzophenone	830	3352000	0.0005677	0.502
119-64-2	1,2,3,4-tetrahydronaphthalene	720	3650000	0.000408	0.335
119-65-3	isoquinoline	803.15	5100000	0.000374	0.304
119-67-5	2-formylbenzoic acid	772	3830000	0.000372	0.819
119-75-5	2-nitro-N-phenylaniline	835	2870000	0.000623	0.767
1190-22-3	1,3-dichlorobutane	614.09	3594000	0.0003515	0.308
1190-34-7	5-methyl-5-hepteN-3-one	635	3160000	0.0004518	
1190-63-2	hexadecyl stearate	890	650000	0.0020786	
1190-76-7	cis-crotonitrile	568	3880000	0.000265	0.279
1190-83-6	2,2,6-trimethylheptane	593.4	2128000	0.000573	0.396
1191-04-4	2-hexenoic acid	696	3300000	0.0003894	
1191-16-8	3,3-dimethylallyl acetate	592.33	2830000	0.000428	0.432
1191-25-9	hydroxycaproic acid	730	3580000	0.000435	1.178
1191-75-9	7-hexadecenoic acid	896	1700000	0.0009256	
1191-96-4	ethylcyclopropane	480.93	4067000	0.0002725	0.242
1191-99-7	2,3-dihydrofuran	524	5500000	0.000205	0.226
1192-18-3	cis-1,2-dimethylcyclopentane	565.15	3445000	0.00037	0.266
1193-16-4	cis-3-methylcyclohexylamine	622	3490000	0.000393	0.386
1193-17-5	trans-3-methylcyclohexylamine	622	3490000	0.000393	0.386
1193-46-0	2,2-dimethylcyclohexanol	645	3590000	0.0004482	
1193-47-1	2,2-dimethylcyclohexanone	670	3250000	0.0004217	
1195-31-9	1-methyl-4-isopropylcyclohexene, (R)	640	2600000	0.000511	
1195-32-0	1-methyl-4-(1-methylethenyl)benzene	667.16	2944000	0.0005255	0.39
1195-42-2	cyclohexylisopropylamine	662	2800000	0.0005103	
1195-93-3	2,2,6,6-tetramethylcyclohexanone	710	2750000	0.0005195	
1196-31-2	cis-5-methyl-2-isopropylcyclohexanone, (2R)	710	2750000	0.0005195	
1196-39-0	4-methylisoquinoline	778.59	3705000	0.000463	0.428
1196-58-3	3-phenylpentane	665.05	2671000	0.0005375	0.413
1197-34-8	3,5-diethylphenol	742.72	3376000	0.0004215	0.541
1198-37-4	2,4-dimethylquinoline	776.4	3353000	0.0005145	0.497
120-12-7	anthracene	873	2900000	0.000554	0.486
120-51-4	benzyl benzoate	820	2580000	0.000694	0.59
120-61-6	dimethyl terephthalate	772	2780000	0.000529	0.637
120-72-9	indole	790	4300000	0.000431	0.376
120-80-9	pyrocatechol	764	7490000	0.0003	0.701
120-82-1	1,2,4-trichlorobenzene	725	3720000	0.000395	0.358
120-92-3	cyclopentanone	624.5	4600000	0.000258	0.288
120-94-5	N-methylpyrrolidine	550	4200000	0.0003	0.226
120-95-6	2,4-di-tert-amylphenol	750	2000000	0.0007693	
12002-48-1	trichlorobenzene	726.09	3831000	0.0004053	0.374
12027-06-4	ammonium iodide	1104.32	1818000	0.0015153	
12037-82-0	phosphorus heptasulfide	1167.97	3253000	0.00078199	
12069-94-2	niobium carbide	7689.49	81886000	0.00020455	
12070-06-3	tantalum carbide	8605.72			
12071-33-9	uranium carbide	7688.33	80583000	0.00020783	
12075-68-2	ethyl aluminum sesquichloride	791	7000000	0.0003375	
121-05-1	N,N-diisopropyl ethylenediamine	715	3150000	0.0005253	
121-14-2	2,4-dinitrotoluene	814	3400000	0.000487	0.713
121-17-5	4-chloro-3-nitrobenzotrifluoride	686	2740000	0.00049	0.607
121-32-4	ethyl vanillin	748	3270000	0.000467	1.073
121-33-5	vanillin	777	4010000	0.000415	0.757
121-44-8	triethylamine	535.15	3040000	0.00039	0.316
121-69-7	N,N-dimethylaniline	687.15	3630000	0.000465	0.402
121-72-2	3-methyl-N,N-dimethylaniline	705.58	3284000	0.000482	0.413
121-73-3	m-chloronitrobenzene	742	3980000	0.000432	0.492
121-91-5	isophthalic acid	1007	3950000	0.000424	1.061
12124-97-9	ammonium bromide	1089.82	1794000	0.0015153	
12124-99-1	ammonium hydrogensulfide	499.1	822000	0.0015153	
12125-02-9	ammonium chloride	882	1640000	0.0013415	3.92
12125-09-6	phosphonium iodide	539.7	7761000	0.0001584	0.326
12165-69-4	phosphorus (III) sulfide	1224.35	8155000	0.00032702	
122-32-7	glycerol trioleate	1640	470000	0.00309	
122-39-4	diphenylamine	817	3180000	0.000539	0.53
122-60-1	phenyl glycidyl ether	720	2950000	0.000464	0.594
122-66-7	hydrazobenzene	939	3090000	0.0005999	0.672
122-97-4	benzenepropanol	694	3430000	0.00044	0.803
12211-52-8	ammonium cyanide	491.32	10947000	0.00010224	0.425
12279-90-2	arsenic sulfide	1314.59	2847000	0.00052203	
123-01-3	dodecylbenzene	780	1560000	0.000923	0.733
123-02-4	tridecylbenzene	790	1480000	0.000978	0.78
123-04-6	3-(chloromethyl)heptane	642.41	2443000	0.0005325	0.462
123-05-7	2-ethylhexanal	607	2580000	0.000474	0.52
123-07-9	p-ethylphenol	716.45	4290000	0.000374	0.515
123-08-0	p-hydroxybenzaldehyde	844	4990000	0.000361	0.617
123-15-9	2-methylpentanal	569.05	3412000	0.0003825	0.433
123-17-1	2,6,8-trimethylnonaN-4-ol	712.9	1970000	0.0007045	0.635
123-19-3	4-heptanone	602	2920000	0.000434	0.412
123-20-6	vinyl butanoate	569	3250000	0.000376	0.434
123-25-1	diethyl succinate	663	2530000	0.0005674	0.67
123-29-5	ethyl nonanoate	652	2047000	0.0006587	0.639
123-31-9	p-hydroquinone	823	7450000	0.0003	0.682
123-38-6	propionaldehyde	504.4	4920000	0.000204	0.256
123-39-7	N-methylformamide	721	5620000	0.000215	0.41
123-42-2	diacetone alcohol	606	3600000	0.000387	0.768
123-44-4	2,2,4-trimethyl-1-pentanol	603.02	2869000	0.0004855	0.706
123-48-8	2,2,4,6,6-pentamethyl-3-heptene	656.77	1872000	0.0006948	0.548
123-51-3	3-methyl-1-butanol	577.2	3930000	0.000327	0.589
123-54-6	acetylacetone	646.65	3960000	0.000323	0.211
123-56-8	succinimide	858	5970000	0.000271	0.483
123-62-6	propionic anhydride	623	3270000	0.000396	0.56
123-63-7	paraldehyde	579	3500000	0.000365	0.437
123-66-0	ethyl hexanoate	602	2610000	0.000494	0.395
123-68-2	allyl hexanoate	628	2450000	0.0005048	
123-72-8	butyraldehyde	537.2	4320000	0.000258	0.277
123-73-9	crotonaldehyde	569	4250000	0.00025	0.338
123-75-1	pyrrolidine	568.55	5610000	0.000249	0.267
123-76-2	levulinic acid	738	4020000	0.000343	0.756
123-79-5	di-n-octyl adipate	830	1130000	0.00126	1.048
123-82-0	2-heptanamine	565.35	2919000	0.0004593	0.409
123-86-4	butyl acetate	575.4	3090000	0.000389	0.439
123-91-1	1,4-dioxane	587	5208000	0.000238	0.28
123-92-2	3-methylbutyl acetate	586.1	2760000	0.000442	0.489
123-95-5	butyl stearate	764	1110000	0.00123	1.025
123-96-6	2-octanol	629.6	2754000	0.000518	0.584
123-99-9	azelaic acid	811	2560000	0.00061	1.172
123434-07-1	2,4,6-trimethyl-3-heptene, isomer	616.98	2185000	0.0005813	0.457
124-02-7	N-allyl-2-propeN-1-amine	556	3320000	0.000392	0.448
124-04-9	adipic acid	809	3530000	0.0004	1.051
124-06-1	ethyl myristate	721	1500000	0.0008835	
124-07-2	octanoic acid	694.26	2779000	0.000499	0.771
124-09-4	hexamethylenediamine	660	3290000	0.000475	0.635
124-10-7	methyl tetradecanoate	708	1580000	0.0008384	
124-11-8	1-nonene	594	2330000	0.000526	0.41
124-12-9	octanenitrile	661.13	2473000	0.0005095	0.562
124-13-0	1-octanal	638.9	2960000	0.000488	0.464
124-17-4	diethylene glycol monobutyl ether acetate	679	2060000	0.000682	0.842
124-18-5	decane	617.7	2110000	0.0006	0.492
124-19-6	1-nonanal	658	2730000	0.000527	0.512
124-22-1	dodecylamine	696	1880000	0.000735	0.764
124-25-4	tetradecanal	717.32	1615000	0.0008365	0.784
124-28-7	dimethyloctadecylamine	779.7	970000	0.00117	0.763
124-30-1	octadecylamine	777.4	1100000	0.00106	0.905
124-38-9	carbon dioxide	304.19	7382000	0.000094	0.2276
124-40-3	dimethylamine	437.2	5340000	0.00018	0.3
124-63-0	methanesulfonyl chloride	676	5230000	0.00026	0.3
124-68-5	2-amino-2-methyl-1-propanol	571.82	4140000	0.0003	0.711
124-70-9	dichlorovinylmethylsilane	544.1	2940000	0.000409	0.293
124-73-2	1,2-dibromotetrafluoroethane	487.8	3393000	0.000341	0.243
12440-00-5	phosphorous (III) oxide	714.86	5208000	0.00031269	0.218
12504-41-5	silicon monosulfide	2033.65	29895000	0.00014818	
125164-51-4	pentadecyl butanoate	773.3	1010000	0.001157	
126-30-7	neopentyl glycol	635	4240000	0.000345	1.126
126-33-0	sulfolane	853	5030000	0.0003	0.382
126-98-7	methacrylonitrile	554	3880000	0.000265	0.301
126-99-8	chloroprene	525	4260000	0.000273	0.197
127-17-3	pyruvic acid	634.52	5650000	0.000239	0.671
127-18-4	tetrachloroethylene	620	4490000	0.000248	0.214
127-19-5	N,N-dimethylacetamide	658	4030000	0.000321	0.364
127-27-5	pimaric acid	807.1	1648000	0.000998	0.792
127-91-3	βpinene	643	2760000	0.000494	0.325
128-37-0	2,6-di-tert-butyl-p-cresol	724	2110000	0.000757	0.679
128-39-2	2,6-di-tert-butylphenol	765	2280000	0.000704	0.631
129-00-0	pyrene	936	2610000	0.00066	0.507
129619-37-0	(3R,6R)-3,6-octanediol	692.04	3100000	0.000517	1.28
1300-21-6	dichloroethane	542	5218000	0.00023	0.266
1300-71-6	dimethyl phenol	713.62	4432000	0.0003768	0.513
1300-94-3	5-methyl-2-pentylphenol	755.67	2747000	0.0005987	0.59
13006-29-6	1,2-undecanediol	709.89	2307000	0.0006835	1.317
13007-92-6	chromium carbonyl	690.8	5696000	0.0003025	0.193
13019-20-0	2-methyl-3-heptanone	624	2640000	0.000469	0.528
13019-22-2	9-deceN-1-ol	643	2300000	0.0005276	
13021-15-3	N,N,2,4,6-pentamethylaniline	700	2750000	0.0005661	
13023-60-4	2,2-diethyl-1-butanol	605.76	2844000	0.0004915	0.738
13024-80-1	hexacosylbenzene	913.77	638000	0.0017195	
1303-33-9	arsenic (III) sulfide	1608.24	6838000	0.00026593	
1303-96-4	sodium tetraborate decahydrate	3030			
13038-21-6	8-noneN-1-ol	629.65	2467000	0.0005338	0.541
1304-76-3	bismuth oxide	3367.96	44826000	0.00016366	
1305-78-8	calcium oxide	6020			
13054-87-0	2-amino-1-butanol, (±)-	571.82	4140000	0.0003	0.711
1306-19-0	cadmium oxide	2983.96	24606000	0.0003025	0.626
13065-07-1	1,2,3,4-tetrahydro-2,7-dimethylnaphthalene	737.62	2773000	0.0005485	0.424
1309-48-4	magnesium oxide	5950	3391000	0.0002095	0.2137
1309-64-4	antimony (III) oxide	2765.72	22806000	0.0003025	0.604
13093-04-4	N,N'-dimethyl-1,6-hexanediamine	715	3150000	0.0005253	
131-11-3	dimethyl phthalate	766	2780000	0.00053	0.657
131-16-8	dipropyl phthalate	768	1990000	0.000789	0.855
1310-58-3	potassium hydroxide	2624	21488000	0.0003025	0.586
1310-73-2	sodium hydroxide	2820	25000000	0.0002	0.477
131105-01-6	tetraphosphorus hexasulfide	1130.96	3511000	0.00070164	
13116-53-5	1,2,2,3-tetrachloropropane	662.36	3741000	0.0003885	0.31
13116-60-4	1,1,2,2-tetrachloropropane	654.51	3778000	0.0003825	0.28
1313-27-5	molybdenum oxide	2319.46	19126000	0.0003025	0.552
13138-51-7	1,2,3,3-tetrachlorobutane	690	3400000	0.0004395	
1314-24-5	phosphorus trioxide	667.6	6577000	0.00022112	
1314-56-3	phosphorus pentoxide	1245.86	10051000	0.00027002	
1314-68-7	rhenium heptoxide	942	8535000	0.000334	0.313
1314-80-3	phosphorus (V) sulfide	1291	23200000	0.00013881	0.5936
1314-85-8	phosphorus sesquisulfide	1043.94	4734000	0.00048031	
1314-86-9	phosphorous triselinide	986.59	4207000	0.00051087	
1314-87-0	lead sulfide	2531.19	20872000	0.0003025	0.577
1314-95-0	tin (II) sulfide	2486.26	29996000	0.00018055	
13147-06-3	9-tetradecenoic acid	856	1800000	0.000839	
13150-81-7	2,6-dimethyldecane	638.02	1805000	0.0006955	0.519
13151-04-7	5-methyl-1-heptene	560.59	2668000	0.0004585	0.357
13151-05-8	4-methyl-1-heptene	559.87	2668000	0.0004585	0.357
13151-17-2	5-methyl-cis2-hexene	538.78	2986000	0.0004015	0.302
13151-27-4	2-methyl-1-decene	637.68	2016000	0.0006335	0.491
13151-34-3	3-methyldecane	632.86	1948000	0.0006455	0.507
13151-35-4	5-methyldecane	627.4	1948000	0.0006455	0.507
13154-12-6	cis-1-bromo-1-hexene	609.39	3573000	0.0004135	0.402
13154-13-7	trans-1-bromo-1-hexene	609.39	3573000	0.0004135	0.402
13163-73-0	trans-2-methyl-5-isopropylcyclohexanone, (2S)	710	2750000	0.0005195	
1317-36-8	lead oxide	2842.26	23437000	0.0003025	0.612
1317-80-2	rutile	4763.33	79200000	0.00013101	
13172-91-3	5-methyl-3-heptene	564.74	2694000	0.0004588	0.328
13175-27-4	1,6-heptanediol	627.98	3468000	0.0004595	1.245
13187-99-0	2-bromododecane	726.55	1889000	0.0007695	0.69
1319-77-3	cresol mixture	702.68	4905000	0.0002903	0.465
132-64-9	dibenzofuran	824	3640000	0.000495	0.399
132-65-0	dibenzothiophene	897	3860000	0.000512	0.398
1320-67-8	methoxypropanol	569	4240000	0.0002973	0.759
13205-44-2	borine carbonyl	340.03	5503000	0.00014074	0.188
13205-60-2	ethylisobutylamine	538.12	3181000	0.0004005	0.432
1321-89-7	isodecanal	657	2150000	0.00058	0.642
1321-94-4	methylnaphthalene	766.52	3455000	0.000515	0.347
1323-65-5	dinonylphenol	902	1240000	0.00123	1.125
13231-81-7	3-methyl-1-hexanol	606.68	3121000	0.0004405	0.764
13250-12-9	(R)-(-)-sec-butylamine	503.5	3945000	0.0002999	0.331
13254-34-7	2,6-dimethyl-2-heptanol	598.01	2595000	0.0005415	0.748
13269-52-8	trans-3-hexene	509	3170000	0.000351	0.285
1327-53-3	arsenic trioxide	1200	4000000	0.00018319	0.0611
132739-31-2	di(propylene glycol) tert-butyl ether, isomers	667	2230000	0.000631	0.997
13279-85-1	1,1,1-trichlorobutane	614.26	3485000	0.0003955	0.3
13279-87-3	1,1,3-trichlorobutane	628.34	3472000	0.0003945	0.332
13280-60-9	1,3,3-trichlorobutane	633.65	3485000	0.0003955	0.3
13281-11-3	2-nonanethiol	672	2300000	0.000582	0.473
13283-01-7	tungsten (VI) chloride	923	4975000	0.000422	
13286-90-3	5-methyl-2-thiahexane	607.44	3196000	0.0004195	0.351
13286-91-4	3-methyl-2-thiahexane	608.92	3196000	0.0004195	0.351
13286-92-5	3,3-dimethyl-2-thiapentane	632	3130000	0.000435	0.284
13287-09-7	1,1-dicyclohexylhexadecane	856.76	818000	0.0014695	0.704
13287-19-9	2-methyl-3-isopropyloctane	638.89	1817000	0.0006895	0.491
13294-71-8	2-bromo-2-butene	568.74	4555000	0.0003018	0.301
133-37-9	DL-tartaric acid	828	5180000	0.000305	2.011
1330-16-1	(-)-a-pinene	647	2780000	0.0005053	0.341
1330-20-7	xylenes	620.21	3599000	0.0003745	0.317
1330-61-6	isodecyl acrylate	716	1900000	0.0007174	
1331-22-2	methylcyclohexanone	650	3550000	0.0003776	
1331-29-9	ethyldichlorobenzene	735	3300000	0.000446	
1331-43-7	diethylcyclohexane; (mixed isomers)	667	2570000	0.000534	0.274
1331-50-6	trimethyl nonanone	687.46	1879000	0.0007135	0.691
13320-56-4	1,1-dibromopentane	665.55	4152000	0.0004335	0.48
13325-10-5	4-amino-1-butanol	571.82	4140000	0.0003	0.711
13329-71-0	isopropyloctadecylamine	783.99	976000	0.001247	0.817
1333-41-1	methylpyridine	637.38	4474000	0.0003219	0.284
1333-74-0	hydrogen	33.18	1313000	0.00006415	-0.215
13343-98-1	1-butoxy-2-methoxyethane	618	2940000	0.0004606	
1335-09-7	6-methyl-6-hepteN-2-ol	615	3100000	0.0003875	
13360-61-7	1-pentadecene	708	1570000	0.000875	0.684
13360-63-9	ethylbutylamine	548.52	3153000	0.0004065	0.463
13361-63-2	4,4-dimethyl-1-pentyne	538.28	3368000	0.0003785	0.21
13362-52-2	1,13-tridecanediol	759.19	1920000	0.0008015	1.324
13362-80-6	4,8-dimethylquinoline	784.5	3353000	0.0005145	0.497
13364-16-4	1-amino-2-methylpentane	580.19	3345000	0.0003945	0.451
13368-65-5	(R)-(+)-3-methylcyclohexanone	650	3550000	0.0003776	
13373-83-6	octadecyl butanoate	797.2	850000	0.001331	
13373-97-2	1-eicosanethiol	814.57	1058000	0.0012095	0.809
13389-42-9	trans-2-octene	577	2580000	0.000484	0.338
13400-13-0	cesium fluoride	2482.33	20469000	0.0003025	0.572
13402-60-3	2-decanethiol	690	2100000	0.000637	0.506
13417-08-8	methylhexadecylamine	745	1240000	0.001005	0.842
13417-43-1	1-chloro-2-methyl-2-butene	561.69	3541000	0.0003432	0.275
13419-69-7	trans-2-hexenoic acid	696	3300000	0.0003894	
13423-15-9	3-methyltetrahydrofuran	639.01	4289000	0.0002775	0.264
13432-25-2	2,4-dimethyl-3-hexanol	588.35	2860000	0.0004845	0.741
1344-28-1	aluminum oxide	5335	195320000	0.00006813	1.2
13444-90-1	nitryl chloride	394.96	6007000	0.00014322	
13446-74-7	rubidium fluoride	2738.03	22578000	0.0003025	0.601
13450-88-9	gallium (III) bromide	806.7		0.000303	
13450-90-3	gallium trichloride	694	3820000	0.000263	0.4577
13450-91-4	gallium (III) iodide	951		0.000395	
13450-92-5	germanium bromide	718	4417000	0.000392	0.169
13450-95-8	germanium (IV) iodide	973	5659000	0.0005	
13451-11-1	tantalum (V) bromide	974		0.000461	