CASRN	Chemical	Tc	Pc	Vc	omega
628-29-5	2-thiahexane	593	3470000	0.00036	0.323
628-32-0	ethyl propyl ether	500.23	3370000	0.000339	0.346
628-41-1	1,4-cyclohexadiene	569	4730000	0.000277	0.205
628-44-4	2-methyl-2-octanol	604.24	2574000	0.0005475	0.78
628-46-6	5-methylhexanoic acid	680	2990000	0.000442	0.717
628-55-7	isobutyl ether	562	2530000	0.000487	0.424
628-61-5	2-chlorooctane	642.41	2443000	0.0005325	0.462
628-63-7	pentyl acetate	599.9	2770000	0.000442	0.448
628-71-7	1-heptyne	559	3140000	0.000386	0.273
628-72-8	2,4-heptadiene	556	3450000	0.0003478	
628-73-9	hexanenitrile	622.05	2920000	0.000384	0.474
628-76-2	1,5-dichloropentane	668	3190000	0.000396	0.377
628-77-3	1,5-diiodopentane	739.07	3295000	0.0004915	0.362
628-80-8	methyl pentyl ether	546.49	3042000	0.00038	0.344
628-81-9	ethyl butyl ether	531	2990000	0.000382	0.385
628-87-5	1,1'-imidodiacetonitrile	731	3540000	0.000357	0.719
628-92-2	cycloheptene	598	4010000	0.000336	0.252
628-96-6	ethylene glycol dinitrate	654	4040000	0.000362	0.79
628-97-7	ethyl palmitate	746	1340000	0.0009913	
628-99-9	2-nonanol	649.6	2530000	0.000575	0.595
6280-03-1	vinyl nonanoate	672	2250000	0.0005784	
62882-00-2	8-methylisoquinoline	778.59	3705000	0.000463	0.428
629-03-8	1,6-dibromohexane	684.21	3682000	0.0004895	0.526
629-04-9	1-bromoheptane	651	3080000	0.000477	0.444
629-05-0	1-octyne	585	2820000	0.000441	0.323
629-06-1	1-chloroheptane	621.08	2693000	0.0004765	0.418
629-08-3	heptanenitrile	643.1	2727000	0.0004535	0.518
629-09-4	1,6-diiodohexane	762.6	2986000	0.0005415	0.376
629-11-8	1,6-hexanediol	683	3610000	0.000398	1.216
629-14-1	ethylene glycol diethyl ether	561	2930000	0.000402	0.482
629-19-6	4,5-dithiaoctane	675	3030000	0.000463	0.437
629-20-9	1,3,5,7-cyclooctatetraene	642.55	4141000	0.0003455	0.244
629-23-2	3-tetradecanone	712.65	1601000	0.0008255	0.759
629-27-6	1-iodooctane	665.98	2884000	0.0005025	0.857
629-30-1	1,7-heptanediol	683.18	3436000	0.0004655	1.278
629-32-3	1-methoxy-heptane	563.33	2507000	0.0004893	0.415
629-33-4	hexyl formate	607	2800000	0.000442	0.483
629-37-8	1-nitrooctane	690.75	2566000	0.0005655	0.643
629-41-4	1,8-octanediol	694.71	3080000	0.0005215	1.302
629-45-8	5,6-dithiadecane	704.16	2624000	0.0005915	0.529
629-49-2	2-dodecyne	686.26	2047000	0.0006695	0.498
629-50-5	tridecane	675	1680000	0.000775	0.617
629-58-3	pentadecyl acetate	753	1150000	0.001041	
629-59-4	tetradecane	693	1570000	0.00083	0.643
629-60-7	tridecanenitrile	733.04	1612000	0.0007895	0.753
629-62-9	pentadecane	708	1480000	0.000889	0.686
629-63-0	tetradecanenitrile	745.12	1494000	0.0008455	0.781
629-64-1	diheptyl ether	692.83	1503000	0.0008375	0.71
629-65-2	8-thiapentadecane	762.23	1544000	0.0008735	0.7
629-66-3	2-nonadecanone	766.51	1127000	0.0011055	0.843
629-70-9	hexadecyl acetate	762.5	1070000	0.001099	
629-72-1	1-bromopentadecane	762.51	1492000	0.0009375	0.786
629-73-2	1-hexadecene	722	1480000	0.000933	0.724
629-74-3	1-hexadecyne	724.26	1472000	0.0008935	0.661
629-75-4	2-hexadecyne	742.19	1486000	0.0008935	0.65
629-76-5	1-pentadecanol	759	1700000	0.000854	0.78
629-78-7	heptadecane	736	1340000	0.0010289	0.77
629-79-8	hexadecanenitrile	768.13	1295000	0.0009575	0.823
629-80-1	hexadecanal	740.1	1392000	0.0009485	0.833
629-82-3	dioctyl ether	707	1440000	0.00091	0.934
629-89-0	1-octadecyne	747.33	1277000	0.0010055	0.715
629-90-3	heptadecanal	752.2	1298000	0.0010045	0.849
629-92-5	nonadecane	758	1210000	0.0011483	0.852
629-93-6	1-iodooctadecane	808.59	1256000	0.0010625	1.022
629-94-7	heneicosane	778	1110000	0.0012677	0.942
629-96-9	1-eicosanol	809	1300000	0.00112	0.918
629-97-0	docosane	787	1060000	0.0013274	0.972
629-98-1	cis-13-docoseN-1-ol	811	1100000	0.0012463	
629-99-2	pentacosane	812	950000	0.0015065	1.105
6290-03-5	(R)-(-)-1,3-butanediol	630.99	5032000	0.0002899	1.127
6291-84-5	3-(methylamino)propylamine	612.33	4610000	0.0003161	0.533
6294-31-1	7-thiatridecane	733.68	1806000	0.0007615	0.631
62946-68-3	2-propyl-1,4-butanediol	627.98	3468000	0.0004595	1.245
63-91-2	L-phenylalanine	854	3470000	0.000506	0.852
630-01-3	hexacosane	819	910000	0.0015662	1.154
630-02-4	octacosane	832	850000	0.0016856	1.238
630-03-5	nonacosane	838	826000	0.0017453	1.265
630-04-6	hentriacontane	904.88	569000	0.0018647	
630-05-7	tritriacontane	935.79	520000	0.0019841	
630-06-8	hexatriacontane	986.42	680000	0.0021632	1.526
630-07-9	pentatriacontane	968.33	477000	0.0021035	
630-08-0	carbon monoxide	132.92	3499000	0.0000931	0.0663
630-13-7	2,2-diiodopropane	709.92	4266000	0.0003685	0.183
630-16-0	1,1,1,2-tetrabromoethane	800.13	4600000	0.0003845	0.544
630-17-1	1-bromo-2,2-dimethylpropane	578.18	3858000	0.0003665	0.296
630-18-2	2,2-dimethylpropanenitrile	565.78	3444000	0.0003305	0.335
630-19-3	2,2-dimethylpropanal	525.74	3882000	0.0003215	0.325
630-20-6	1,1,1,2-tetrachloroethane	624	4020000	0.000325	0.242
630-76-2	tetraphenylmethane	983	1790000	0.000966	0.679
6303-21-5	hypophosphorous acid	627.65	8973000	0.00015237	
6304-18-3	3-isopropylpyridine	653	3330000	0.000417	0.376
6305-71-1	2,4-dimethyl-1-pentanol	592.4	3149000	0.0004345	0.731
6308-94-7	diethyldecylamine	675.16	1570000	0.0008575	0.717
631-28-7	1,2,3-tribromo-2-methylpropane	736.76	5282000	0.0004345	0.495
631-36-7	tetraethylsilane	606	2400000	0.000587	0.4
631-65-2	2-chloro-3-methylbutane	555.08	3384000	0.0003525	0.269
6310-21-0	2-tert-butylaniline	690	2985000	0.0005255	0.69
63126-48-7	3-ethyl-4-octanol	613.33	2334000	0.0006025	0.852
632-05-3	1,2,3-tribromobutane	730.78	5259000	0.0004335	0.531
632-15-5	3,4-dimethylthiophene	640.4	4060000	0.000325	0.298
632-16-6	2,3-dimethylthiophene	635.3	4060000	0.000325	0.297
632-50-8	1,1,2,2-tetraphenylethane	827	1670000	0.001022	0.732
632-51-9	tetraphenylethylene	996	1710000	0.00102	0.729
6321-23-9	4-methylcyclohexylamine	622	3490000	0.000393	0.386
63318-29-6	cis-1-iodo-1-heptene	677.01	2891000	0.0004955	0.375
6339-13-5	2-methylpentanenitrile	605.44	3049000	0.0003915	0.442
634-66-2	1,2,3,4-tetrachlorobenzene	772.88	3647000	0.0004595	0.437
634-90-2	1,2,3,5-tetrachlorobenzene	761.15	3647000	0.0004595	0.437
63468-05-3	2-methyl-3-penteN-1-ol	587	3900000	0.0003038	
635-11-0	1,2,4,5-tetraisopropylbenzene	754.52	1481000	0.0009678	0.742
635-81-4	1,2,4,5-tetraethylbenzene	706.85	1930000	0.0007115	0.562
63521-36-8	3,4-dimethyl-1,4-pentanediol	677.27	3547000	0.0004485	1.141
63521-37-9	3-methyl-2,3-pentanediol	670.5	3991000	0.0003925	1.105
636-41-9	2-methylpyrrole	610	4770000	0.000283	0.213
6362-80-7	2,4-diphenyl-4-methyl-1-pentene	835	2000000	0.000839	0.547
6366-35-4	1-chloro-2,2-dimethylbutane	583.68	3046000	0.0004095	0.283
637-50-3	1-propenylbenzene	656.71	3451000	0.0004118	0.321
637-78-5	isopropyl propanoate	553	3030000	0.000392	0.432
637-92-3	ethyl tert-butyl ether	514	3040000	0.000382	0.296
637-97-8	2-iodopentane	585.69	4078000	0.0003285	0.694
63716-39-2	isobutoxypropanol, mixed isomers	618	2940000	0.0004606	
63716-40-5	N-butoxypropanol (mixed isomers)	618	2940000	0.0004606	
63716-41-6	2-ethylbutoxypropanol, mixed isomers	654	2640000	0.0005407	
63737-71-3	N,N'-diisopropyl-1,3-propanediamine	741	2850000	0.0005974	
63765-80-0	4-amino-2-methyl-3-hexanol	716	3300000	0.0004683	
6378-65-0	hexyl hexanoate	667	1893000	0.0007173	0.699
638-00-6	2,4-dimethylthiophene	634	4060000	0.000325	0.297
638-02-8	2,5-dimethylthiophene	627.8	4060000	0.000325	0.297
638-04-0	cis-1,3-dimethylcyclohexane	591.15	2938000	0.00045	0.237
638-10-8	ethyl 3-methyl-2-butenoate	592.33	2830000	0.000428	0.432
638-11-9	1-methylethyl butanoate	574	2730000	0.000447	0.464
638-25-5	pentyl octanoate	682	1740000	0.000776	0.759
638-28-8	2-chlorohexane	584.57	3009000	0.0004145	0.343
638-45-9	1-iodohexane	667	3350000	0.000449	0.398
638-46-0	3-thiaheptane	609	3000000	0.0004255	0.374
638-49-3	pentyl formate	576	3125000	0.000389	0.528
638-53-9	tridecanoic acid	754	1810000	0.000758	0.904
638-59-5	tetradecyl acetate	742.9	1230000	0.000983	
638-60-8	2-tetradecene	716.27	1644000	0.0007815	0.55
638-65-3	octadecanenitrile	790.72	1133000	0.0010695	0.84
638-66-4	octadecanal	762.31	1212000	0.0010605	0.858
638-67-5	tricosane	796	1020000	0.0013871	1.026
638-68-6	triacontane	844	800000	0.001805	1.307
6382-13-4	pentyl stearate	798	1060000	0.001217	
63905-13-5	N'-isopropyl-N,N'-dimethyl-1,3-propane-diamine	715	3150000	0.0005253	
64-17-5	ethyl alcohol	513.92	6148000	0.000167	0.645
64-18-6	formic acid	588	5810000	0.000125	0.317
64-19-7	acetic acid	591.95	5786000	0.0001797	0.467
64-67-5	diethyl sulfate	749	6480000	0.000398	0.387
640-21-1	1,2-dibromo-3,3-dimethylbutane	684.21	3682000	0.0004895	0.526
641-91-8	1,2,5-trimethylnaphthalene	779.72	2671000	0.0005775	0.492
6414-96-6	5,5-dimethylnonane	622.47	1967000	0.0006405	0.448
6418-41-3	3-methyltridecane	685.13	1533000	0.0008135	0.622
6418-43-5	3-methylhexadecane	727.5	1238000	0.0010289	0.708
6418-44-6	3-methylheptadecane	740.59	1159000	0.0010886	0.727
6418-45-7	3-methylnonadecane	764.46	1021000	0.001208	0.748
642-32-0	1,2,3,4-tetraethylbenzene	708.2	1930000	0.0007115	0.562
6422-18-0	1-chlorotetracosane	843.04	789000	0.0014285	0.703
6423-02-5	2,3-dibromohexane	684.21	3682000	0.0004895	0.526
64245-25-6	cis-1-iodo-3-methyl-1-butene	629.33	3629000	0.0003775	0.257
64265-26-5	2,4-dimethyltetrahydrofuran	564.54	3647000	0.0003325	0.282
643-28-7	2-isopropylaniline	705.58	3284000	0.000482	0.413
643-58-3	2-methylbiphenyl	790.07	3520000	0.000538	0.425
643-93-6	3-methylbiphenyl	801	3520000	0.000538	0.418
6434-78-2	trans-2-nonene	593.62	2372000	0.0005248	0.411
64379-30-2	2,4-dimethyl-2-pentanamine	565.35	2919000	0.0004593	0.409
644-08-6	4-methylbiphenyl	793.4	3520000	0.000538	0.439
644-35-9	2-propylphenol	716.37	3858000	0.0003655	0.496
644-49-5	propylisobutanoate	579.4	2840000	0.000442	0.484
644-98-4	2-isopropylpyridine	653	3330000	0.000417	0.376
6443-92-1	cis-2-heptene	549	2840000	0.000424	0.294
645-41-0	triisopentylamine	711.57	1434000	0.0009012	0.754
645-49-8	cis-stilbene	784	2740000	0.000596	0.476
645-55-6	N-nitroaniline	816.67	4420000	0.000406	0.754
645-56-7	4-propylphenol	736.87	3858000	0.0003655	0.496
645-62-5	2-ethyl-2-hexenal	636	2640000	0.000461	0.454
64501-77-5	2-methyl-4-octene	593.62	2372000	0.0005248	0.411
64502-86-9	3,4-dimethyl-2-pentanol	587.7	3178000	0.0004285	0.697
64531-23-3	cis-1-chloro-1-octene	640.48	2574000	0.0005125	0.43
646-04-8	trans-2-pentene	475.37	3654000	0.0003021	0.237
646-05-9	1-pentene-3-yne	520	4400000	0.000256	0.252
646-07-1	4-methylpentanoic acid	661	3380000	0.000389	0.652
646-13-9	isobutyl stearate	764	1110000	0.0011353	
646-14-0	1-nitrohexane	659.32	3149000	0.0004535	0.555
646-19-5	1,7-heptanediamine	689	3450000	0.0004654	
646-24-2	1,9-diaminononane	741	2850000	0.0005974	
646-30-0	nonadecanoic acid	812	1300000	0.00107	1.063
646-31-1	tetracosane	804	980000	0.0014468	1.071
6464-40-0	DL-threo-4-methyl-2,3-pentanediol	685.78	3976000	0.0003915	1.143
6481-95-4	4,4-dimethyl-1-hexanol	617.99	2844000	0.0004915	0.738
64919-20-6	3-thiaoctadecane	798.63	1246000	0.0010415	0.774
65-85-0	benzoic acid	751	4470000	0.000344	0.603
65016-55-9	3-decylthiophene	785	1900000	0.000851	
65016-61-7	3-heptylthiophene	725	2400000	0.0006321	
65016-62-8	3-octylthiophene	745	2200000	0.0007058	
65036-71-7	4,5-dimethyl-cis2-hexene	562.01	2718000	0.0004515	0.317
65072-05-1	1-tetracontyne	1041.84	415000	0.0022375	
65423-25-8	11-dodecenoic acid	816	2000000	0.0007232	
65502-58-1	3,3,4-trimethyl-1-pentanol	606.5	2869000	0.0004855	0.706
65530-93-0	3-methyl-1-hexanamine	565.35	2919000	0.0004593	0.409
65591-14-2	eicosyl propanoate	804.3	790000	0.001389	
6561-44-0	3-methyloctadecane	752.9	1086000	0.0011483	0.741
6569-51-3	borazine	521.2	3634000	0.00032672	0.092
6570-87-2	3,4-dimethyl-1-pentanol	600.63	3149000	0.0004345	0.731
6570-88-3	2,3,4-trimethyl-1-pentanol	619.59	2860000	0.0004845	0.741
6572-99-2	thiacyclooctane	726.84	3867000	0.0003915	0.255
65769-10-0	6,6-dimethyl-1-heptanol	609.4	2574000	0.0005475	0.78
65786-09-6	2,2-dichloroheptane	654.02	2614000	0.0005195	0.442
65786-11-0	2-chloro-1-heptene	613.52	2844000	0.0004565	0.385
65822-93-7	2,4-dimethyl-2-heptanol	612.62	2595000	0.0005415	0.748
659-70-1	3-methylbutyl isopentanoate	637	2200000	0.0006	0.579
65927-60-8	2,3,5-trimethyl-3-hexanol	594.3	2616000	0.0005355	0.716
6596-40-3	N-pentacontane	1073.6	351000	0.002999	
66-25-1	hexanal	591	3460000	0.000369	0.387
661-11-0	1-fluoroheptane	555.8	2580000	0.000443	0.436
661-19-8	1-docosanol	811.6	1090000	0.0012306	
661-53-0	2-fluoro-2-methylbutane	486.17	3365000	0.0003225	0.238
661-97-2	1,2-dichlorohexafluoropropane	449	2570000	0.000369	0.329
66142-53-8	1,1-diiodoundecane	855.13	1874000	0.0008215	0.591
66142-59-4	cis-1-bromo-1-undecene	699.36	2157000	0.0006935	0.621
66142-60-7	trans-1-bromo-1-undecene	699.36	2157000	0.0006935	0.621
66142-61-8	trans-1-chloro-1-undecene	700.84	1960000	0.0006805	0.558
66142-62-9	trans-1-fluoro-1-undecene	615.67	1946000	0.0006495	0.557
66142-63-0	cis-1-iodo-1-undecene	735.45	1986000	0.0007195	0.548
66142-64-1	trans-1-iodo-1-undecene	735.45	1986000	0.0007195	0.548
66142-71-0	2,3-diethylphenol	719.7	3376000	0.0004215	0.541
66142-78-7	2-methyl-3-propylphenol	733.95	3376000	0.0004215	0.541
66172-73-4	cis-1-chloro-1-undecene	700.84	1960000	0.0006805	0.558
66172-74-5	cis-1-fluoro-1-undecene	615.67	1946000	0.0006495	0.557
66213-67-0	cis-1-chloro-3-methyl-1-butene	558.56	3564000	0.0003385	0.267
66213-68-1	trans-1-chloro-3-methyl-1-butene	558.56	3564000	0.0003385	0.267
66213-69-2	cis-1-chloro-1-pentene	546.85	3530000	0.0003445	0.296
66213-70-5	trans-1-chloro-1-pentene	546.85	3530000	0.0003445	0.296
66213-72-7	cis-1-fluoro-2-methyl-1-butene	482.63	3518000	0.0003145	0.271
66213-73-8	cis-1-fluoro-3-methyl-1-butene	482.91	3530000	0.0003075	0.266
66213-74-9	trans-1-fluoro-2-methyl-1-butene	482.63	3518000	0.0003145	0.271
66213-75-0	trans-1-fluoro-3-methyl-1-butene	482.91	3530000	0.0003075	0.266
66213-76-1	1-fluoro-2-methyl-cis2-butene	482.63	3518000	0.0003145	0.271
66213-77-2	1-fluoro-2-methyl-trans-2-butene	482.63	3518000	0.0003145	0.271
66213-78-3	2-fluoro-3-methyl-1-butene	472.95	3510000	0.0003095	0.251
66213-79-4	2-fluoro-3-methyl-2-butene	486.02	3539000	0.0003155	0.246
66213-80-7	3-fluoro-3-methyl-1-butene	473.89	3535000	0.0003035	0.216
66213-81-8	4-fluoro-2-methyl-1-butene	469.43	3477000	0.0003155	0.281
66213-82-9	4-fluoro-3-methyl-1-butene	469.68	3489000	0.0003085	0.276
66213-83-0	cis-1-fluoro-1-pentene	479.34	3497000	0.0003135	0.296
66213-84-1	trans-1-fluoro-1-pentene	479.34	3497000	0.0003135	0.296
66213-85-2	1-fluoro-cis2-pentene	479.34	3497000	0.0003135	0.296
66213-86-3	1-fluoro-trans-2-pentene	479.34	3497000	0.0003135	0.296
66213-87-4	2-fluoro-cis2-pentene	482.63	3518000	0.0003145	0.271
66213-88-5	2-fluoro-trans-2-pentene	482.63	3518000	0.0003145	0.271
66213-89-6	2-fluoro-1-pentene	469.43	3477000	0.0003155	0.281
66213-90-9	3-fluoro-cis2-pentene	482.63	3518000	0.0003145	0.271
66213-91-0	1,1-diiodononacosane	1292.15	613000	0.0018295	
66213-93-2	nonacosylamine	926.61	643000	0.0016885	
66213-94-3	diethylpentacosylamine	850.99	636000	0.0016975	
66213-95-4	dimethylheptacosylamine	885.47	636000	0.0016975	
66213-96-5	ethylheptacosylamine	895.8	628000	0.0016945	
66213-97-6	methyloctacosylamine	889.63	628000	0.0016945	
66213-98-7	1,1-diiodotriacontane	1325.37	585000	0.0018855	
66214-00-4	triacontylamine	941.88	612000	0.0017445	
66214-01-5	diethylhexacosylamine	865.2	607000	0.0017535	
66214-02-6	dimethyloctacosylamine	898.56	607000	0.0017535	
66214-03-7	ethyloctacosylamine	909.72	599000	0.0017505	
66214-04-8	methylnonacosylamine	903.52	599000	0.0017505	
66214-07-1	1,1-diiodohentriacontane	1360.04	559000	0.0019415	
66214-08-2	hentriacontylamine	958.15	584000	0.0018005	
66214-09-3	diethylheptacosylamine	877.8	579000	0.0018095	
66214-10-6	dimethylnonacosylamine	912.56	579000	0.0018095	
66214-11-7	ethylnonacosylamine	924.58	572000	0.0018065	
66214-12-8	methyltriacontylamine	918.35	572000	0.0018065	
66214-13-9	1,1-diiododotriacontane	1396.28	534000	0.0019975	
66214-14-0	dotriacontylamine	974.21	558000	0.0018565	
66214-15-1	diethyloctacosylamine	891.32	553000	0.0018655	
66214-16-2	dimethyltriacontylamine	927.51	553000	0.0018655	
66214-17-3	ethyltriacontylamine	940.45	547000	0.0018625	
66214-18-4	methylhentriacontylamine	932.92	547000	0.0018625	
66214-19-5	1,1-diiodotritriacontane	1434.22	511000	0.0020535	
66214-22-0	diethylnonacosylamine	907.05	529000	0.0019215	
66214-23-1	dimethylhentriacontylamine	942.21	529000	0.0019215	
66214-24-2	ethylhentriacontylamine	956.12	523000	0.0019185	
66214-25-3	methyldotriacontylamine	949.8	523000	0.0019185	
66214-26-4	1,1-diiodotetratriacontane	1474	490000	0.0021095	
66214-29-7	tetratriacontylamine	1008.41	511000	0.0019685	
66214-30-0	diethyltriacontylamine	923.81	506000	0.0019775	
66214-31-1	dimethyldotriacontylamine	959.24	506000	0.0019775	
66214-32-2	ethyldotriacontylamine	974.18	501000	0.0019745	
66214-33-3	methyltritriacontylamine	966.53	501000	0.0019745	
6622-76-0	methyl 2-methyl-2-butenoate	569	3250000	0.000376	0.434
66225-12-5	3,5-dimethyl-trans-2-hexene	564.15	2710000	0.0004585	0.322
66225-14-7	4,5-dimethyl-trans-2-hexene	562.01	2718000	0.0004515	0.317
66225-15-8	3-ethyl-trans-2-hexene	572.89	2687000	0.0004645	0.351
66225-16-9	4-methyl-cis2-heptene	563.49	2696000	0.0004575	0.347
66225-17-0	4-methyl-trans-2-heptene	563.49	2696000	0.0004575	0.347
66225-18-1	6-methyl-cis2-heptene	567.85	2696000	0.0004575	0.347
66225-19-2	6-methyl-cis3-heptene	564.94	2696000	0.0004575	0.347
66225-20-5	6-methyl-trans-3-heptene	564.94	2696000	0.0004575	0.347
66225-22-7	1,1-diiodooctane	799.06	2446000	0.0006535	0.465
66225-30-7	2,3-dimethyl-trans-3-hexene	567.08	2710000	0.0004585	0.322
66225-31-8	3,5-dimethyl-cis2-hexene	564.15	2710000	0.0004585	0.322
66225-32-9	3-ethyl-2,3-pentanediol	628.77	3547000	0.0004485	1.141
66225-33-0	3-ethyl-2,4-pentanediol	626.93	3535000	0.0004475	1.178
66225-35-2	2-methyl-2,4-hexanediol	677.27	3547000	0.0004485	1.141
66225-37-4	4-methyl-1,5-hexanediol	660.11	3501000	0.0004535	1.212
66225-38-5	dimethyl-1,2-dimethylpropylamine	565.3	2941000	0.0004595	0.406
66225-39-6	dimethyl-2-methylbutylamine	561.68	2941000	0.0004595	0.406
66225-40-9	methylethylbutylamine	560.63	2916000	0.0004655	0.437
66225-41-0	methylethyl-sec-butylamine	544.53	2941000	0.0004595	0.406
66225-42-1	methylpropylisopropylamine	558.79	2941000	0.0004595	0.406
66225-46-5	cis-1-fluoro-1-hexene	502.87	3131000	0.0003695	0.34
66225-47-6	trans-1-fluoro-1-hexene	502.87	3131000	0.0003695	0.34
66225-50-1	1,1-diiodohexane	762.6	2986000	0.0005415	0.376
66225-51-2	3-ethyl-1-pentanol	598.5	3121000	0.0004405	0.764
66225-52-3	2,3-dimethyl-1,3-pentanediol	677.27	3547000	0.0004485	1.141
66225-53-4	2,4-dimethyl-2,3-pentanediol	604.17	3581000	0.0004425	1.107
66225-54-5	4,4-dimethyl-1,2-pentanediol	677.27	3547000	0.0004485	1.141
6624-76-6	1-nonacosanol	871.6	790000	0.0017148	
66250-03-1	1,1,4-trichlorobutane	623.15	3440000	0.0004005	0.362
66256-39-1	3,4,4,5-tetramethyl-3-hexanol	641.12	2403000	0.0005865	0.693
66256-40-4	3,4,5,5-tetramethyl-3-hexanol	631.67	2403000	0.0005865	0.693
66256-41-5	2,2,4-trimethyl-3-ethyl-3-pentanol	626.28	2403000	0.0005865	0.693
66256-42-6	2,2,5-trimethyl-4-heptanol	607.56	2377000	0.0005915	0.757
66256-43-7	2,2,6-trimethyl-3-heptanol	618.25	2377000	0.0005915	0.757
66256-44-8	2,2,6-trimethyl-4-heptanol	607.56	2377000	0.0005915	0.757
66256-46-0	2,4,5-trimethyl-4-heptanol	607.56	2377000	0.0005915	0.757
66256-47-1	2,4,6-trimethyl-2-heptanol	622.25	2377000	0.0005915	0.757
66256-48-2	2,5,6-trimethyl-2-heptanol	622.45	2377000	0.0005915	0.757
66256-50-6	3,5,5-trimethyl-3-heptanol	629.12	2384000	0.0005925	0.724
66256-60-8	6-methyl-2-nonanol	640.97	2334000	0.0006025	0.852
66256-61-9	7-methyl-2-nonanol	640.97	2334000	0.0006025	0.852
66256-62-0	4-methyl-2-propyl-1-hexanol	633.27	2334000	0.0006025	0.852
66256-63-1	2,2,3,4-tetramethyl-3-hexanol	627.63	2403000	0.0005865	0.693
66256-64-2	2,2,3,5-tetramethyl-3-hexanol	692.84	2403000	0.0005865	0.693
66256-65-3	2,2,4,4-tetramethyl-3-hexanol	624.93	2403000	0.0005865	0.693
66256-66-4	2,3,4,4-tetramethyl-2-hexanol	624.93	2403000	0.0005865	0.693
66256-67-5	2,3,4,4-tetramethyl-3-hexanol	639.77	2403000	0.0005865	0.693