CASRN	Chemical	Tc	Pc	Vc	omega
353-81-1	2,2-difluorobutane	466.65	3573000	0.0002845	0.246
35320-23-1	(R)-(-)-2-amino-1-propanol	631	5463000	0.0002697	0.737
35365-59-4	9-octadecyne	754.15	1285000	0.0010055	0.709
35399-81-6	2-amino-3-methylpentane	596.83	3376000	0.0003885	0.419
354-09-6	2-fluoro-2,3-dimethylbutane	508.31	3019000	0.0003785	0.282
354-11-0	1,1,1,2-tetrachloro-2-fluoroethane	598.6	4030000	0.000345	0.289
354-12-1	1,1,1-trichloro-2,2-difluoroethane	530.7	3990000	0.000314	0.288
354-14-3	1,1,2,2-tetrachloro-1-fluoroethane	598	4030000	0.000345	0.289
354-15-4	1,1,2-trichloro-1,2-difluoroethane	530	3990000	0.000314	0.288
354-21-2	1,2,2-trichloro-1,1-difluoroethane	529	3990000	0.000314	0.288
354-23-4	1,2-dichloro-1,1,2-trifluoroethane	461.6	3610000	0.000278	0.241
354-25-6	1-chloro-1,1,2,2-tetrafluoroethane	400	3760000	0.000252	0.274
354-33-6	pentafluoroethane	339.17	3620000	0.0002113	0.305
354-56-3	pentachlorofluoroethane	624	3340000	0.000382	0.245
354-58-5	1,1,1-trichloro-2,2,2-trifluoroethane	483	3320000	0.000321	0.267
354-92-7	perfluoroisobutane	386.35	2323000	0.000397	0.372
35413-38-8	2,2,4-trimethylcyclohexanone	690	2950000	0.0004746	
35449-36-6	2,2,9,9-tetramethyl-1,10-decanediol	770.08	1777000	0.000853	1.296
355-25-9	decafluorobutane	386.35	2323000	0.000397	0.372
3552-01-0	1-isopropylcyclohexanol	655	3390000	0.0004788	
3555-47-3	tetrakis(trimethylsilyloxy)silane	645.8	961000	0.00161	0.746
35551-81-6	dipentadecylamine	906	599000	0.0017505	
35599-77-0	1-iodotridecane	744.41	1823000	0.0007825	1.014
35599-78-1	1-iodopentadecane	771.45	1557000	0.0008945	1.04
356-18-3	1,2-dichloro-1,2,3,3,4,4-hexafluorocyclobutane	497	2730000	0.000386	0.233
357-26-6	1,1,2,3,3,4,4,4-octafluoro-1-butene	392	2330000	0.000347	0.291
3574-43-4	N,N-diisopentylethanolamine	820	2400000	0.0007149	
358-03-2	3,3-difluoropentane	500.25	3196000	0.0003405	0.29
3581-69-9	2,2-dimethylpropyl propanoate	593	2470000	0.000503	0.677
35852-46-1	cis-3-hexenyl valerate	672	2250000	0.0005784	
3586-58-1	2-methylenebutanoic acid	676	4057000	0.0003215	0.415
35866-89-8	2,6-dimethyl-4-isopropylheptane	624.8	1829000	0.0006835	0.462
35866-96-7	2,4,4,7-tetramethyloctane	629.87	1834000	0.0006845	0.432
35895-39-7	3-iodo-cis2-pentene	628.8	3616000	0.0003845	0.261
35897-16-6	2-methyl-3-pentyl acetate	618	2540000	0.000494	0.54
359-00-2	1-fluoro-2-methylpropane	444.56	3723000	0.0002715	0.254
359-01-3	2-fluorobutane	458.55	3723000	0.0002715	0.254
359-10-4	2-chloro-1,1-difluoroethylene	400.55	4458000	0.000197	0.212
359-11-5	trifluoroethene	347.22	4516000	0.0001825	0.238
359-28-4	1,1,2-trichloro-2-fluoroethane	552.93	4162000	0.0003005	0.296
359-35-3	1,1,2,2-tetrafluoroethane	391.8	4620000	0.000191	0.266
35902-57-9	ethyldodecylamine	707.4	1570000	0.00084	0.776
3593-00-8	5-heptenoic acid	716	2900000	0.0004518	
35951-33-8	2-chloro-2,4-dimethylpentane	621.08	2693000	0.0004765	0.418
35951-36-1	2,6-dichloro-2,6-dimethylheptane	688.79	2167000	0.0006315	0.528
360-89-4	octafluoro-2-butene	392	2330000	0.000347	0.292
36011-19-5	1,1,2-trifluoropropane	404.56	3787000	0.0002455	0.285
36049-78-2	2-iodooctane, (±)	665.98	2884000	0.0005025	0.857
36186-96-6	3-methyl-5-propylphenol	756.97	3376000	0.0004215	0.541
36230-28-1	2-butyl-[1,2,3,4-tetrahydronaphthalene]	764.18	2287000	0.0006605	0.511
36301-29-8	1-methyl-2-isobutylbenzene	671.35	2630000	0.0005375	0.412
3634-92-2	propyl stearate	785	1160000	0.0011384	
36343-05-2	methylheptylamine	609.8	2600000	0.00051	0.547
3638-35-5	isopropylcyclopropane	506.65	3560000	0.0003331	0.259
3643-64-9	1,3,5-trimethylcyclohexene	620	2860000	0.0004518	
3648-20-2	diundecyl phthalate	970	928000	0.00158	0.747
3648-21-3	diheptyl phthalate	815	1270000	0.00116	1.105
36555-73-4	diethylpentadecylamine	735.67	1108000	0.0011375	0.811
36566-80-0	2-methyl-3-hexyne	561.44	3372000	0.0003835	0.25
36653-82-4	1-hexadecanol	770	1610000	0.000907	0.816
36668-55-0	cis-1-bromo-2-methyl-1-butene	592.21	4047000	0.0003585	0.331
36691-77-7	2-methyl-4-tridecanol	736.2	1715000	0.0008125	0.686
367-11-3	o-difluorobenzene	554.46	4067000	0.0002995	0.32
3675-68-1	1,1,2-tribromobutane	725.15	5259000	0.0004335	0.531
3675-69-2	1,2,2-tribromobutane	727.5	5282000	0.0004345	0.495
36794-64-6	2,3,3-trimethyl-1-butanol	601.01	3188000	0.0004295	0.662
3681-78-5	propyl dodecanoate	708	1580000	0.0008457	
3683-19-0	4-methyl-cis2-hexene	534.04	2986000	0.0004015	0.302
3683-22-5	4-methyl-trans-2-hexene	535.9	2986000	0.0004015	0.302
36839-67-5	methyl 1-ethylpropyl ether	530.71	3076000	0.0003835	0.359
3685-00-5	3,trans-6-dimethylcyclohexene	597.92	3163000	0.0004015	0.26
3685-01-6	4,trans-5-dimethylcyclohexene	597.92	3163000	0.0004015	0.26
3687-48-7	(R)-(-)-1-octeN-3-ol	615	3100000	0.0003875	
36880-72-5	3-ethyl-cis2-hexene	572.89	2687000	0.0004645	0.351
36903-89-6	4-chloro-4-methyloctane	661.88	2227000	0.0005885	0.505
36903-92-1	5-methyl-5-octeN-4-ol	629	2700000	0.0004473	
36903-95-4	4-methyl-3,5-octadiene	616	3280000	0.0004007	
36917-36-9	4-ethyl-2,6-dimethylpyridine	673	3000000	0.0004694	
3698-89-3	2-thiatetradecane	748.42	1667000	0.0008175	0.667
3698-93-9	4-thiadodecane	717.91	1963000	0.0007055	0.592
3698-94-0	3-thiaundecane	700	2400000	0.000624	0.538
3698-95-1	2-thiadecane	681.56	2345000	0.0005935	0.508
37050-06-9	7-methyl-3-octyne	621.49	2696000	0.0005015	0.373
371-64-2	1-fluoro-3,3-dimethylbutane	517.29	3009000	0.0003775	0.313
371-65-3	2,2-difluoropentane	499.35	3196000	0.0003405	0.29
3710-30-3	1,7-octadiene	586	3400000	0.0003691	
3710-31-4	1,2-heptanediol	661.26	3468000	0.0004595	1.245
3710-43-8	2,4-dimethylfuran	560.17	4173000	0.0003065	0.332
3710-84-7	N-ethyl-N-hydroxyethanamine	567	4130000	0.000331	0.715
37143-54-7	2-amino-1-methoxypropane	548	4090000	0.000333	0.423
3717-68-8	4-methyl-1,1-diphenylethane	789.13	2493000	0.0006535	0.491
372-18-9	m-difluorobenzene	552.94	4067000	0.0002995	0.32
372-54-3	2-fluorohexane	528.59	2983000	0.0003835	0.342
372-66-7	6-amino-2-methyl-2-heptanol	741	3100000	0.000512	
372-90-7	1,4-difluorobutane	524.74	3493000	0.0002955	0.336
3724-55-8	methyl 3-butenoate	555.5	3680000	0.000323	0.355
3724-61-6	dodecyl butanoate	743.9	1210000	0.000983	
3724-65-0	crotonic acid	656.42	4660000	0.0002691	0.5
3726-47-4	1-methyl-3-ethylcyclopentane	585.27	2947000	0.0004239	0.276
3728-54-9	1-ethyl-2-methylcyclohexane	621.31	2740000	0.0004706	0.29
373-14-8	1-fluorohexane	528.1	2850000	0.000388	0.391
373-17-1	1,5-difluoropentane	554.4	3128000	0.0003515	0.381
373-44-4	1,8-octanediamine	715	3150000	0.0005253	
373-49-9	cis-9-hexadecenoic acid	896	1700000	0.0009256	
3730-60-7	2,5-dimethyl-2-hexanol	581.44	2869000	0.0004855	0.706
3739-64-8	1-(2-propenyloxy)butane	561	2900000	0.0004032	
374-07-2	1,1-dichloro-1,2,2,2-tetrafluoroethane	418.55	3300000	0.000294	0.253
3741-00-2	pentylcyclopentane	647.49	2505000	0.0005365	0.398
3742-38-9	4-ethylcyclopentene	566.02	3569000	0.0003545	0.27
3742-42-5	4-ethylcyclohexene	611.67	3284000	0.0004025	0.285
3744-02-3	4-methyl-4-penteN-2-one	595	3960000	0.0003428	
3748-84-3	2,3,5,6-tetramethylpyridine	673	3000000	0.0004694	
37493-70-2	5-undecanol	696.85	2130000	0.0006505	0.596
37529-27-4	4-heptylaniline	720	2300000	0.0006859	
37529-30-9	4-decylaniline	750	1900000	0.0008454	
37549-83-0	4-methyl-2-hexenoic acid	716	2900000	0.0004518	
37549-89-6	2,4-dimethyl-cis3-hexene	559.76	2710000	0.0004585	0.322
3756-30-7	3-iodo-2-methyl-1-propene	594.11	4021000	0.0003295	0.227
3760-11-0	2-nonenoic acid	756	2500000	0.0005459	
3760-20-1	2-ethylcyclohexanol	645	3590000	0.0004482	
37615-53-5	N-methyldihexylamine	694.76	1671000	0.0007883	0.685
37674-63-8	2-methyl-3-pentenoic acid	696	3300000	0.0003894	
37674-67-2	2,2-dimethyl-4-hexeN-3-ol	615	3100000	0.0003875	
37688-96-3	1,14-dibromotetradecane	787.47	1713000	0.0009375	0.843
3769-23-1	4-methyl-1-hexene	534	3040000	0.000398	0.302
3772-13-2	2,2-dimethylthiacyclopropane	574.84	4870000	0.0002605	0.206
3777-69-3	2-amylfuran	650	3570000	0.0004079	
3777-71-7	2-heptylfuran	660	2970000	0.000496	
37796-58-0	1,4-diethylnaphthalene	812.35	2460000	0.0006335	0.537
3780-58-3	3-methylhexanoic acid	680	2990000	0.000442	0.717
37810-94-9	1,4-decanediol	737.41	2535000	0.0006275	1.309
37866-06-1	1-chloro-2,3-dimethyl-2-butene	583.61	3160000	0.0004005	0.341
3788-32-7	isobutylcyclopentane	617.21	2788000	0.0004745	0.33
37973-84-5	trans-9-undecenoic acid	796	2100000	0.000675	
38031-78-6	3-tert-butylpyridine	673	3000000	0.0004694	
3806-59-5	cis,cis-1,3-cyclooctadiene	645	3900000	0.000366	0.286
3806-60-8	(Z,E)-1,3-cyclooctadiene	645	3900000	0.000366	0.286
3814-34-4	1-bromo-2-ethylbutane	626.3	3468000	0.0004165	0.311
38146-95-1	1,4-dodecanediol	762.98	2108000	0.0007395	1.318
38169-04-9	1-iodo-trans-2-butene	630.09	4047000	0.0003275	0.242
382-21-8	perfluoroisobutene	392	2330000	0.000347	0.291
38204-89-6	1,3-dichloro-2,5-dimethylbenzene	735	3300000	0.000446	
38300-67-3	1,2,4-tribromobutane	717.58	5198000	0.0004395	0.565
38360-81-5	3,5-dimethylthiophenol	730.98	3806000	0.0004295	0.373
38384-05-3	3-chloro-2-methylpentane	571.28	3036000	0.0004085	0.314
38395-42-5	4-ethyl-4-octanol	616.17	2341000	0.0006035	0.819
3850-30-4	2-amino-3,3-dimethyl butane	557.1	3420000	0.0003835	0.356
38514-02-2	3-methyl-1-octanol	627.23	2546000	0.0005525	0.846
38514-03-3	4-methyl-1-octanol	627.23	2546000	0.0005525	0.846
38514-04-4	5-methyl-1-octanol	627.23	2546000	0.0005525	0.846
38514-05-5	6-methyl-1-octanol	635.39	2546000	0.0005525	0.846
38514-13-5	4-methyl-3-ethyl-1-pentanol	605.16	2835000	0.0004905	0.773
38514-15-7	3-isopropyl-1-heptanol	642.75	2334000	0.0006025	0.852
3855-26-3	4-methyl-2-ethylphenol	719.75	3787000	0.0003655	0.495
38552-72-6	3-methyl-5-hepteN-2-one	635	3160000	0.0004518	
3864-18-4	2,3-dimethylbiphenyl	802	3190000	0.000593	0.416
38640-62-9	bis(isopropyl)naphthalene	808.25	2165000	0.0007433	0.605
38721-71-0	dichlorobenzyl chloride	737	3340000	0.000447	0.26
3875-51-2	isopropylcyclopentane	593	3040000	0.00042	0.303
3875-52-3	tert-butylcyclopentane	622.56	2820000	0.0004695	0.271
3876-97-9	1,2,8-trimethylnaphthalene	786.77	2671000	0.0005775	0.492
3877-15-4	2-thiapentane	565	3970000	0.000307	0.274
3877-19-8	2-methyl-[1,2,3,4-tetrahydronaphthalene]	721.27	3076000	0.0004925	0.379
38836-25-8	4-methyl-2,4-hexanediol	677.27	3547000	0.0004485	1.141
38842-05-6	1,2,3,5-tetraethylbenzene	708	2070000	0.000703	0.594
38857-76-0	1-butyl-[1,2,3,4-tetrahydronaphthalene]	756.75	2287000	0.0006605	0.511
3899-36-3	3-methyl-trans-3-hexene	543.99	2976000	0.0004085	0.307
39036-65-2	1-methyl-2-propylnaphthalene	812.35	2460000	0.0006335	0.537
3905-64-4	2,6-bis(1,1-dimethylethyl)-naphthalene	823.23	1758000	0.0008575	0.699
39093-27-1	methylnonylamine	649.4	2170000	0.00062	0.624
3913-02-8	2-butyl-1-octanol	712.9	1970000	0.0007045	0.635
3913-71-1	2-decenal	670	2200000	0.0005823	
3913-85-7	2-decenoic acid	776	2300000	0.0006036	
39198-07-7	methylethylisopropylamine	538.62	3273000	0.0004035	0.361
392-56-3	hexafluorobenzene	516.73	3273000	0.000335	0.395
3922-24-5	1,1,1-trichlorotridecane	763.82	1528000	0.0008995	0.672
3922-25-6	1,1,1-trichloroundecane	738.37	1786000	0.0007875	0.601
3922-26-7	1,1,1-trichloroheptane	676.24	2546000	0.0005635	0.434
3922-27-8	1,1,1-trichloropentane	635.09	3121000	0.0004515	0.345
3922-28-9	1,12-dichlorododecane	733.47	1685000	0.0007995	0.647
39220-65-0	1-nitropentadecane	772.46	1428000	0.0009575	0.872
39220-66-1	1-nitroheptadecane	792.11	1242000	0.0010695	0.893
39257-08-4	2,2,3-trimethylcyclohexanone	690	2950000	0.0004746	
39273-81-9	6-methyl-4-hepteN-2-one	635	3160000	0.0004518	
39294-88-7	3(4)-methylstyrene, isomers	658.75	3370000	0.000417	0.334
3931-89-3	phosphorus thiobromide	729.89	6019000	0.0003025	0.209
3937-56-2	1,9-nonanediol	706.66	2776000	0.0005775	1.321
3938-95-2	ethyl tert-pentanoate	580.5	2765000	0.0004448	0.562
3944-36-3	1-(1-methylethoxy)-2-propanol	562	3360000	0.0004	0.768
39497-66-0	2-isopropyl-1,4-butanediol	660.11	3501000	0.0004535	1.212
3950-21-8	meso-2,4-pentanediol	630.45	4456000	0.0003415	1.142
39516-24-0	1,3-dodecanediol	736.85	2108000	0.0007395	1.318
39516-65-9	1,2-nonadecanediol	831.78	1231000	0.0011315	1.074
3953-10-4	2-ethylbutyl acrylate	628	2450000	0.0005048	
39563-53-6	2-bromodecane	698.43	2248000	0.0006575	0.611
39616-19-8	1-bromo-cis2-butene	581.68	4559000	0.0003015	0.312
39622-45-2	1,3-dimethyl-6-ethylnaphthalene	811.44	2424000	0.0006335	0.536
3965-59-1	2,4-dimethyl-1-hexanol	605.36	2835000	0.0004905	0.773
3968-85-2	1-phenyl-2-methylbutane	673.65	2671000	0.0005375	0.413
3970-59-0	2,4-dimethyl-3-ethyl-3-pentanol	610.61	2616000	0.0005355	0.716
3970-60-3	2,2,5-trimethyl-3-hexanol	586.38	2616000	0.0005355	0.716
3970-62-5	2,2-dimethyl-3-pentanol	567.71	3188000	0.0004295	0.662
3976-34-9	2,6-dimethylbiphenyl	768.1	3080000	0.000593	0.475
39761-57-4	3,4,4-trimethyl-trans-2-pentene	573.25	2741000	0.0004535	0.263
39761-61-0	5,5-dimethyl-cis2-hexene	561.87	2727000	0.0004525	0.287
39761-64-3	3,4,4-trimethyl-cis2-pentene	573.25	2741000	0.0004535	0.263
3978-81-2	4-tert-butylpyridine	673	3000000	0.0004694	
39782-38-2	isopentyl vinyl ether	561	2900000	0.0004032	
39782-43-9	5,5-dimethyl-trans-2-hexene	557.73	2727000	0.0004525	0.287
3982-64-7	1,3-dimethyl-5-propylbenzene	674.65	2569000	0.0005435	0.441
3982-66-9	1,2-dimethyl-4-propylbenzene	684.1	2569000	0.0005435	0.441
3982-67-0	1,3,5-trimethyl-2-ethylbenzene	688.22	2530000	0.0005435	0.441
3982-91-0	phosphorus thiochloride	638.82	4857000	0.00029958	0.192
39825-93-9	1,2-eicosanediol	849.99	1152000	0.0011875	1.006
39884-48-5	4-amino-2-butanol	571.82	4140000	0.0003	0.711
39924-57-7	cis-1-bromo-1-heptene	630.55	3196000	0.0004695	0.447
39924-58-8	cis-1-bromo-1-nonene	666.86	2600000	0.0005815	0.536
39966-95-5	1,1,1,2-tetrachlorobutane	690	3400000	0.0004395	
4001-61-0	2,5-dimethylthiophenol	714.1	3806000	0.0004295	0.373
40117-45-1	2,2,6,6-tetramethylheptane	614.86	2000000	0.0006295	0.361
4013-94-9	N,N'-diisopropylethylenediamine	715	3150000	0.0005253	
40137-22-2	3-methylamino-1,2-propanediol	715	3270000	0.000349	1.046
40225-75-0	6-methyl-3-octanol	611.68	2566000	0.0005465	0.814
40239-35-8	2-methyl-3-tridecanone	712.65	1601000	0.0008255	0.759
40243-75-2	2,3-dimethylstyrene	679.34	2970000	0.0004685	0.375
40276-93-5	3-methyl-1-hexyne	542.27	3326000	0.0003835	0.27
4028-56-2	meso-2,3-dichlorobutane	592.85	3629000	0.0003455	0.278
40289-98-3	2-thiaeicosane	821.75	1093000	0.0011535	0.794
4032-86-4	3,3-dimethylheptane	588.85	2457000	0.0005074	0.365
4032-92-2	2,4,4-trimethylheptane	600.3	2219000	0.000541	0.383
4032-93-3	2,3,6-trimethylheptane	604.1	2189000	0.00056	0.403
4032-94-4	2,4-dimethyloctane	600	2170000	0.000575	0.435
40323-88-4	2-methyl-5-ethyl thiophene	650.65	3713000	0.0003875	0.342
40324-31-0	4-ethylthiacyclohexane	646.42	3497000	0.0004065	0.288
4038-04-4	3-ethyl-1-pentene	530	3030000	0.000398	0.302
40441-35-8	3,4,4-trimethylcyclohexanone	690	2950000	0.0004746	
4048-30-0	3-methyl-4-hepteN-3-ol	615	3100000	0.0003875	
4048-31-1	5-methyl-2-hepteN-4-ol	615	3100000	0.0003875	
4048-32-2	3-methyl-6-hepteN-1-ol	615	3100000	0.0003875	
4048-33-3	6-aminohexanol	665	3440000	0.000436	0.969
4049-81-4	2-methyl-1,5-hexadiene	556	3450000	0.0003478	
4050-45-7	trans-2-hexene	513	3160000	0.00036	0.261
4057-42-5	2,6-dimethyl-2-octene	616.98	2185000	0.0005813	0.457
40575-41-5	2-methyl-4-octanol	609.21	2566000	0.0005465	0.814
40575-42-6	1-octeN-4-ol	615	3100000	0.0003875	
40589-14-8	2-methyl-1-nonanol	648.77	2316000	0.0006085	0.883
406-82-6	1,1,1-trifluoropentane	464.5	2850000	0.000357	0.383
4062-60-6	N,N'-di-tert-butylethylenediamine	625	2160000	0.000686	0.628
40646-07-9	1,4-heptanediol	702.65	3468000	0.0004595	1.245
40649-36-3	4-propylcyclohexanone	690	2950000	0.0004746	
4067-16-7	pentaethylenehexamine	820	2110000	0.000912	1.387
407-06-7	1-fluoro-3-methylbutane	490.84	3322000	0.0003275	0.298
407-79-4	5-fluoro-1-pentene	504.5	3456000	0.0003145	0.306
407-96-5	1,1-difluoroheptane	556.1	2450000	0.000453	0.433
40723-63-5	1,1,2,2-tetrafluoropropane	457.26	3633000	0.0002585	0.277
4074-43-5	3-butylphenol	742.23	3436000	0.0004215	0.542
4074-46-8	4-methyl-2-propylphenol	780.8	3376000	0.0004215	0.541
40775-09-5	heneicosylbenzene	860.93	826000	0.0014395	0.733
408-32-2	thiacycloundecane	784.51	3016000	0.0005355	0.299
408-38-8	1-fluorohexadecane	714.6	1230000	0.000938	0.719
40813-84-1	5-thiadodecane	717.91	1963000	0.0007055	0.592
40853-53-0	2-isopropyl-5-methyl-2-hexeN-1-ol	643	2300000	0.0005276	
40853-56-3	acetic acid 2-isopropyl-5-methyl-2-hexeN-1-yl ester	816	2000000	0.0007232	
4088-22-6	N-methyldioctadecylamine	1022.31	445000	0.0021425	
4088-36-2	ethyloctylamine	642.4	2130000	0.00062	0.616
4088-37-3	diethyloctylamine	645.88	1839000	0.0007455	0.648
4088-60-2	cis-2-buteN-1-ol	559	5220000	0.0002232	
4089-71-8	3-methyl-1,6-hexanediol	627.98	3468000	0.0004595	1.245
409-02-9	methylheptenone	635	3160000	0.0004518	
4095-22-1	2-isopropylthiophene	640.96	3782000	0.0003875	0.342
4098-71-9	isophorone diisocyanate	765	2520000	0.000667	0.666
41004-19-7	1-iodo-3-methyl-2-butene	628.8	3616000	0.0003845	0.261
4101-68-2	1,10-dibromodecane	741.82	2422000	0.0007135	0.701
4104-01-2	3-chloro-2-methyl-1-pentene	583.61	3160000	0.0004005	0.341
41051-72-3	2-methyl-1,2-butanediol	617.54	4474000	0.0003425	1.102
41065-91-2	3-ethylhexanoic acid	692	2690000	0.000494	0.779
41065-95-6	3-ethyl-1-hexanol	608.64	2811000	0.0004965	0.806
4107-98-6	N,N-diisopropylaniline	710	2500000	0.0006269	
4109-96-0	silane, dichloro	459	4590000	0.000237	0.0985
4110-44-5	3,3-dimethyloctane	612.1	2219000	0.000557	0.404
4110-50-3	3-thiahexane	584	3380000	0.0003695	0.329
4113-08-0	hexadecyl formate	757.1	1170000	0.001039	
41135-45-9	1,2,2-trichlorobutane	663.82	3485000	0.0003955	0.3
4124-88-3	3-nonenoic acid	756	2500000	0.0005459	
4127-45-1	1,1,2-trimethylcyclopropane	504.34	3664000	0.0003255	0.222
4127-47-3	1,1,2,2-tetramethylcyclopropane	530	3300000	0.0003759	
4128-31-8	2-octanol, (±)	600.92	2849000	0.000488	0.733
4130-42-1	2,6-di-tert-butyl-4-ethylphenol	750	2000000	0.0007693	
4132-72-3	1,4-dimethyl-2-isopropylbenzene	670.78	2590000	0.0005375	0.411
4132-77-8	1,2-dimethyl-4-isopropylbenzene	678.79	2590000	0.0005375	0.411
41446-63-3	trans-7-tetradecene	699.45	1686000	0.0008	0.622
4146-04-7	DL-2-amino-1-pentanol	626.41	3790000	0.000368	0.841
41519-23-7	cis-3-hexenyl isobutyrate	650	2350000	0.0005402	
41653-96-7	5-methyl-2-hexenoic acid	716	2900000	0.0004518	
4166-46-5	2,3-dimethyl-3-hexanol	589.22	2869000	0.0004855	0.706
4167-74-2	4-isobutylphenol	733.21	3468000	0.0004155	0.51
4167-75-3	2-isobutylphenol	733	3468000	0.0004155	0.51
4168-40-5	1,1-dichlorotetradecane	758.8	1448000	0.0009115	0.712
41692-47-1	ethyl 3-methylhexanoate	629	2330000	0.000547	0.596
4170-30-3	crotonaldehyde	550.5	4500000	0.0002399	0.296
4175-54-6	1,2,3,4-tetrahydro-1,4-dimethylnaphthalene	737.62	2773000	0.0005485	0.424
41761-11-9	2,5-dichlorohexane, (R*,S*)-	633.09	2891000	0.0004635	0.397
41761-12-0	2,5-dichlorohexane, (R*,R*)-(±)-	633.09	2891000	0.0004635	0.397
41781-17-3	1-amino-2,2-dimethylbutane	569.55	3388000	0.0003895	0.387
4181-95-7	tetracontane	1016.35	391000	0.002402	
41851-34-7	1,2-dicyclohexylpropane	766.86	1979000	0.0007415	0.471
41851-35-8	1,3-dicyclohexylbutane	768.14	1820000	0.0007975	0.512
41909-29-9	3-fluoropentane	490.09	3322000	0.0003275	0.298
41927-66-6	eicosyl butanoate	810.7	760000	0.001447	
41947-84-6	3-thiaheneicosane	832.33	1027000	0.0012095	0.795
420-12-2	ethylene sulfide	547	6780000	0.000167	0.161
420-26-8	2-fluoropropane	415.68	4200000	0.0002155	0.204
420-45-1	2,2-difluoropropane	428.96	4021000	0.0002285	0.202
420-46-2	1,1,1-trifluoroethane	345.88	3764000	0.000195	0.261
4200-95-7	heptadecylamine	767.8	1190000	0.001005	0.869
42007-73-8	2,7-dimethyl-2-octanol	644.39	2359000	0.0005975	0.788
42027-23-6	2,3-pentanediol	633.16	4422000	0.0003429	1.144
42061-72-3	4-isobutylcyclohexanone	710	2750000	0.0005195	
42067-48-1	4-methyl-3-ethyl-cis2-pentene	570.01	2710000	0.0004585	0.322
42067-49-2	4-methyl-3-ethyl-trans-2-pentene	567.52	2710000	0.0004585	0.322
42075-32-1	(R,R)-(-)-2,4-pentanediol	633.16	4422000	0.0003429	1.144
4209-22-7	1-bromotriacontane	933.17	616000	0.0017775	