CASRN	Chemical	Tc	Pc	Vc	omega
66256-68-6	2,4,4,5-tetramethyl-3-hexanol	637.55	2396000	0.0005855	0.726
66256-69-7	3,3,5,5-tetramethyl-2-hexanol	624.72	2403000	0.0005865	0.693
6626-32-0	2,6-dipropylphenol	755.67	2747000	0.0005987	0.59
66271-50-9	1-nitrohexadecane	782	1330000	0.0010135	0.886
66271-53-2	2-hexadecanethiol	768	1400000	0.000967	0.753
66271-54-3	3-thiaheptadecane	791.68	1288000	0.0009315	0.686
66271-55-4	4-thiaheptadecane	787.27	1335000	0.0009855	0.754
66271-56-5	ethyltetradecylamine	732.8	1370000	0.00095	0.848
66271-67-8	cis-1-bromo-1-hexadecene	761.27	1442000	0.0009735	0.79
66271-68-9	trans-1-bromo-1-hexadecene	761.27	1442000	0.0009735	0.79
66271-69-0	cis-1-chloro-1-hexadecene	771.23	1333000	0.0009605	0.727
66271-70-3	trans-1-chloro-1-hexadecene	771.23	1333000	0.0009605	0.727
66271-71-4	cis-1-fluoro-1-hexadecene	727.24	1325000	0.0009295	0.725
66271-72-5	trans-1-fluoro-1-hexadecene	727.24	1325000	0.0009295	0.725
66271-73-6	cis-1-iodo-1-hexadecene	791.82	1348000	0.0009995	0.72
66271-74-7	trans-1-iodo-1-hexadecene	791.82	1348000	0.0009995	0.72
66271-75-8	1,1-diiodohexadecane	955.15	1285000	0.0011015	0.748
66271-76-9	pentadecyl formate	747.3	1260000	0.000981	
66271-77-0	tridecyl propanoate	744.3	1220000	0.000983	
66271-81-6	3-thiahexadecane	775.15	1434000	0.0009295	0.729
66271-82-7	4-thiahexadecane	775.15	1434000	0.0009295	0.729
66271-83-8	5-thiahexadecane	775.15	1434000	0.0009295	0.729
6628-18-8	2,5-dithiahexane	642	3870000	0.000358	0.346
66291-42-7	cis-1-fluoro-1-pentadecene	704.64	1423000	0.0008735	0.699
66291-43-8	trans-1-fluoro-1-pentadecene	704.64	1423000	0.0008735	0.699
66291-44-9	cis-1-iodo-1-pentadecene	781.44	1448000	0.0009435	0.693
66291-45-0	trans-1-iodo-1-pentadecene	781.44	1448000	0.0009435	0.693
66291-47-2	cis-1-chloro-1-decene	682.53	2137000	0.0006245	0.516
66291-48-3	trans-1-chloro-1-decene	682.53	2137000	0.0006245	0.516
66291-49-4	cis-1-fluoro-1-decene	593.48	2122000	0.0005935	0.515
66291-50-7	trans-1-fluoro-1-decene	593.48	2122000	0.0005935	0.515
66291-51-8	1-iodo-1-decene	721.89	2167000	0.0006635	0.506
66291-52-9	trans-1-iodo-1-decene	721.89	2167000	0.0006635	0.506
66291-57-4	1,1-diiododecane	836.2	2040000	0.0007655	0.55
66291-72-3	cis-1-bromo-1-decene	683.71	2363000	0.0006375	0.579
66291-73-4	trans-1-bromo-1-decene	683.71	2363000	0.0006375	0.579
66291-74-5	1,1-diiodooctacosane	1260.3	644000	0.0017735	
66291-75-6	diethyltetracosylamine	838.85	668000	0.0016415	
66291-76-7	dimethylhexacosylamine	873.23	668000	0.0016415	
66291-77-8	ethylhexacosylamine	881.56	660000	0.0016385	
66291-78-9	methylheptacosylamine	875.4	660000	0.0016385	
66291-79-0	dimethylpentacosylamine	860.6	703000	0.0015855	
66291-80-3	ethylpentacosylamine	868.17	694000	0.0015825	
66291-81-4	methylhexacosylamine	863.26	694000	0.0015825	
66291-84-7	1,1-diiodoheptacosane	1229.7	676000	0.0017175	
66291-86-9	diethyltricosylamine	826.28	703000	0.0015855	
66291-89-2	diethyldocosylamine	814.46	740000	0.0015295	
66291-90-5	dimethyltetracosylamine	848.75	740000	0.0015295	
66291-91-6	ethyltetracosylamine	855.6	730000	0.0015265	
66291-92-7	methylpentacosylamine	850.7	730000	0.0015265	
66291-94-9	1,1-diiodohexacosane	1200.28	711000	0.0016615	
66292-27-1	1,1-diiodooctadecane	998.46	1125000	0.0012135	0.779
66292-28-2	heptadecyl formate	766.3	1090000	0.001097	
66292-29-3	pentadecyl propanoate	764.5	1070000	0.001099	
66292-30-6	1-nitrooctadecane	801.56	1162000	0.0011255	0.893
66292-31-7	3-thianonadecane	810.53	1166000	0.0010975	0.787
66292-32-8	4-thianonadecane	810.53	1166000	0.0010975	0.787
66292-33-9	5-thianonadecane	810.53	1166000	0.0010975	0.787
66292-34-0	methylheptadecylamine	755.1	1160000	0.00106	0.868
66292-44-2	cis-1-bromo-1-octadecene	783.3	1253000	0.0010855	0.827
66292-45-3	trans-1-bromo-1-octadecene	783.3	1253000	0.0010855	0.827
66292-46-4	cis-1-chloro-1-octadecene	794.17	1164000	0.0010725	0.765
66292-47-5	trans-1-chloro-1-octadecene	794.17	1164000	0.0010725	0.765
66292-48-6	cis-1-fluoro-1-octadecene	773.26	1158000	0.0010415	0.763
66292-49-7	trans-1-fluoro-1-octadecene	773.26	1158000	0.0010415	0.763
66292-50-0	cis-1-iodo-1-octadecene	812.93	1176000	0.0011115	0.76
66292-51-1	trans-1-iodo-1-octadecene	812.93	1176000	0.0011115	0.76
66309-90-8	1,4-dimethyl-5-ethylnaphthalene	811.44	2424000	0.0006335	0.536
66324-43-4	1,1-diiodotridecane	893.94	1597000	0.0009335	0.664
66324-50-3	cis-1-bromo-1-tridecene	726.09	1819000	0.0008055	0.699
66324-51-4	trans-1-bromo-1-tridecene	726.09	1819000	0.0008055	0.699
66324-52-5	cis-1-chloro-1-tridecene	731.35	1665000	0.0007925	0.635
66324-53-6	trans-1-chloro-1-tridecene	731.35	1665000	0.0007925	0.635
66324-54-7	cis-1-fluoro-1-tridecene	659.99	1654000	0.0007615	0.634
66324-55-8	trans-1-fluoro-1-tridecene	659.99	1654000	0.0007615	0.634
66324-56-9	cis-1-iodo-1-tridecene	759.56	1685000	0.0008315	0.626
66324-57-0	trans-1-iodo-1-tridecene	759.56	1685000	0.0008315	0.626
66324-83-2	1-propyl-[1,2,3,4-tetrahydronaphthalene]	745.97	2513000	0.0006045	0.468
66324-84-3	2-propyl-[1,2,3,4-tetrahydronaphthalene]	752.45	2513000	0.0006045	0.468
66325-09-5	2-hexyl-[1,2,3,4-tetrahydronaphthalene]	784.07	1919000	0.0007725	0.594
66325-11-9	1-hexyl-[ 1,2,3,4-tetrahydronaphthalene]	779	1890000	0.000771	0.589
66325-42-6	5-butyl-1,2,3,4-tetrahydronaphthalene	760.47	2287000	0.0006605	0.511
66325-78-8	1,1-diiodopentadecane	934.29	1378000	0.0010455	0.725
66325-82-4	1,1-diiodotricosane	1118.27	834000	0.0014935	0.735
66326-05-4	1,1-diiododocosane	1092.78	883000	0.0014375	0.759
66326-06-5	nonadecyl propanoate	797.3	840000	0.001331	
66326-07-6	ethyleicosylamine	806.7	909000	0.0013025	0.8
66326-08-7	methylheneicosylamine	803.02	909000	0.0013025	0.8
66326-13-4	heneicosanenitrile	824.05	942000	0.0012375	0.812
66326-14-5	1,1-diiodoheneicosane	1068.11	935000	0.0013815	0.775
66326-15-6	eicosyl formate	790.5	880000	0.001271	
66326-16-7	1-chloroheneicosane	810.87	935000	0.0012605	0.774
66326-18-9	diethylheptadecylamine	758.3	979000	0.0012495	0.804
66326-20-3	methyleicosylamine	791.58	964000	0.0012465	0.822
66359-06-6	1-pentyl-[1,2,3,4-tetrahydronaphthalene]	767.6	2091000	0.0007165	0.554
66359-07-7	2-pentyl-[1,2,3,4-tetrahydronaphthalene]	774.92	2091000	0.0007165	0.554
66359-36-2	1-nitrononadecane	810.4	1089000	0.0011815	0.886
66359-38-4	1,3-nonadecanediol	845.25	1231000	0.0011315	1.074
66359-40-8	3-thiaeicosane	821.75	1093000	0.0011535	0.794
66359-41-9	4-thiaeicosane	821.75	1093000	0.0011535	0.794
66359-42-0	5-thiaeicosane	821.75	1093000	0.0011535	0.794
66359-43-1	ethylheptadecylamine	764.7	1120000	0.001115	0.941
66359-51-1	cis-1-bromo-1-nonadecene	794.49	1172000	0.0011415	0.836
66359-52-2	trans-1-bromo-1-nonadecene	794.49	1172000	0.0011415	0.836
66359-53-3	cis-1-chloro-1-nonadecene	805.2	1091000	0.0011285	0.775
66359-54-4	trans-1-chloro-1-nonadecene	805.2	1091000	0.0011285	0.775
66359-55-5	cis-1-fluoro-1-nonadecene	796.8	1086000	0.0010975	0.773
66359-56-6	trans-1-fluoro-1-nonadecene	796.8	1086000	0.0010975	0.773
66359-57-7	cis-1-iodo-1-nonadecene	822.45	1102000	0.0011675	0.772
66359-58-8	trans-1-iodo-1-nonadecene	822.45	1102000	0.0011675	0.772
66359-60-2	1,1-diiodononadecane	1021	1056000	0.0012695	0.785
66359-61-3	thiacycloeicosane	865.9	1652000	0.0009675	0.428
66359-75-9	diethylheneicosylamine	803.37	780000	0.0014735	0.708
66359-76-0	dimethyltricosylamine	836.42	780000	0.0014735	0.708
66359-77-1	ethyltricosylamine	842.59	769000	0.0014705	0.708
66359-78-2	methyltetracosylamine	837.69	769000	0.0014705	0.708
66359-84-0	1,1-diiodopentacosane	1171.95	749000	0.0016055	
66374-76-3	cis-1-bromo-1-pentadecene	750.39	1554000	0.0009175	0.764
66374-77-4	trans-1-bromo-1-pentadecene	750.39	1554000	0.0009175	0.764
66374-78-5	cis-1-chloro-1-pentadecene	757.95	1432000	0.0009045	0.7
66374-79-6	trans-1-chloro-1-pentadecene	757.95	1432000	0.0009045	0.7
66374-96-7	1,1-diiodotetracosane	1144.63	790000	0.0015495	0.704
66374-97-8	diethyleicosylamine	791.74	824000	0.0014175	0.737
66374-98-9	ethyldocosylamine	830.33	812000	0.0014145	0.732
66374-99-0	methyltricosylamine	826.65	812000	0.0014145	0.732
66375-02-8	diethylnonadecylamine	780.79	871000	0.0013615	0.767
66375-03-9	dimethylheneicosylamine	813.93	871000	0.0013615	0.767
66375-04-0	ethylheneicosylamine	818.78	858000	0.0013585	0.77
66375-05-1	methyldocosylamine	815.11	858000	0.0013585	0.77
6639-30-1	1,2,4-trichloro-5-methylbenzene	737	3340000	0.000447	0.26
66395-23-1	trans-2,5-dimethylcyclohexanone, (±)	670	3250000	0.0004217	
66455-35-4	4-thiaheneicosane	832.33	1027000	0.0012095	0.795
66455-36-5	methylnonadecylamine	773.4	1000000	0.00117	0.913
66455-41-2	trans-1-chloro-1-eicosene	815.57	1025000	0.0011845	0.779
66455-42-3	cis-1-fluoro-1-eicosene	820.75	1020000	0.0011535	0.776
66455-43-4	trans-1-fluoro-1-eicosene	820.75	1020000	0.0011535	0.776
66455-44-5	trans-1-iodo-1-eicosene	832.59	1035000	0.0012235	0.777
66455-45-6	cis-1-iodo-1-eicosene	832.59	1035000	0.0012235	0.777
66455-47-8	1,1-diiodoeicosane	1044.2	993000	0.0013255	0.784
66455-49-0	nonadecyl formate	782.9	940000	0.001213	
66455-50-3	1-nitroeicosane	821.1	1023000	0.0012375	0.871
66455-60-5	1-bromo-1-eicosene	805.01	1099000	0.0011975	0.839
66455-61-6	trans-1-bromo-1-eicosene	805.01	1099000	0.0011975	0.839
66455-62-7	cis-1-chloro-1-eicosene	815.57	1025000	0.0011845	0.779
66455-67-2	2-decyl-[1,2,3,4-tetrahydronaphthalene]	816.73	1406000	0.0009965	0.73
66553-05-7	1-amino-2,3-dimethylbutane	552.72	3376000	0.0003885	0.419
66553-10-4	2-octyl-[1,2,3,4-tetrahydronaphthalene]	802.56	1632000	0.0008845	0.669
66553-15-9	2,3-dimethyl-1,2-butanediol	636.35	3991000	0.0003925	1.105
66553-16-0	2-ethyl-1,2-butanediol	624.29	3951000	0.0003985	1.14
66553-17-1	2-ethyl-1,3-butanediol	630.46	3936000	0.0003975	1.179
66553-33-1	1,1-diiodododecane	874.36	1727000	0.0008775	0.629
66553-34-2	1-nitro-2,3-dimethylbutane	643.56	3206000	0.0004415	0.491
66553-39-7	cis-1-bromo-1-dodecene	712.56	1977000	0.0007495	0.661
66553-40-0	trans-1-bromo-1-dodecene	712.56	1977000	0.0007495	0.661
66553-41-1	cis-1-chloro-1-dodecene	716.62	1803000	0.0007365	0.598
66553-42-2	trans-1-chloro-1-dodecene	716.62	1803000	0.0007365	0.598
66553-43-3	cis-1-fluoro-1-dodecene	637.82	1791000	0.0007055	0.597
66553-44-4	trans-1-fluoro-1-dodecene	637.82	1791000	0.0007055	0.597
66553-45-5	cis-1-iodo-1-dodecene	747.98	1826000	0.0007755	0.588
66553-46-6	trans-1-iodo-1-dodecene	747.98	1826000	0.0007755	0.588
66553-52-4	ethyldecylamine	677.7	1820000	0.00073	0.696
66553-53-5	methylundecylamine	682.3	1830000	0.00073	0.692
66553-61-5	4a-ethyl-cisdecahydronaphthalene	723.87	2396000	0.0005885	0.374
66553-62-6	4a-ethyl-trans-decahydronaphthalene	712.43	2396000	0.0005885	0.374
66563-84-6	ethylnonylamine	660.8	1970000	0.000675	0.657
66563-89-1	cis-1-bromo-1-heptadecene	772.65	1343000	0.0010295	0.812
66563-90-4	trans-1-bromo-1-heptadecene	772.65	1343000	0.0010295	0.812
66563-91-5	cis-1-chloro-1-heptadecene	782.44	1244000	0.0010165	0.749
66563-92-6	trans-1-chloro-1-heptadecene	782.44	1244000	0.0010165	0.749
66563-99-3	1-heptyl-[1,2,3,4-tetrahydronaphthalene]	788.41	1767000	0.0008285	0.633
66575-72-2	trinonadecylamine	1286.51	313000	0.0030981	
66575-83-5	triheptadecylamine	1171.51	335000	0.0027507	
66576-21-4	2,2,3,4,4-pentamethyl-3-ethylpentane	688.61	1869000	0.0006745	0.318
66576-22-5	3-methyl-3-ethyl-2-pentanol	591.48	2869000	0.0004855	0.706
66576-23-6	4-methyl-3-ethyl-2-pentanol	593.79	2860000	0.0004845	0.741
66576-24-7	2,2,3,3-tetramethyl-1-butanol	616.52	2903000	0.0004805	0.639
66576-26-9	2,3,4-trimethyl-2-pentanol	592.43	2894000	0.0004795	0.674
66576-27-0	3,5-dimethyl-2-hexanol	588.35	2860000	0.0004845	0.741
66576-28-1	4,4-dimethyl-2-hexanol	594.21	2869000	0.0004855	0.706
66576-29-2	4,5-dimethyl-2-hexanol	590.87	2860000	0.0004845	0.741
66576-30-5	4,5-dimethyl-3-hexanol	582.72	2860000	0.0004845	0.741
66576-31-6	5,5-dimethyl-3-hexanol	582.12	2869000	0.0004855	0.706
66576-32-7	4-ethyl-1-hexanol	608.64	2811000	0.0004965	0.806
66576-33-8	4-ethyl-2-hexanol	595.71	2835000	0.0004905	0.773
66576-36-1	methylnonatriacontylamine	1089.54	393000	0.0023105	
66576-42-9	nonatriacontylamine	1115.25	416000	0.0022485	
66576-43-0	diethylpentatriacontylamine	1016.58	412000	0.0022575	
66576-44-1	dimethylheptatriacontylamine	1053.87	412000	0.0022575	
66576-45-2	ethylheptatriacontylamine	1075.11	408000	0.0022545	
66576-46-3	methyloctatriacontylamine	1065.67	408000	0.0022545	
66576-47-4	1,1-diiodotetracontane	1760.88	385000	0.0024455	
66576-50-9	tetracontylamine	1139.81	400000	0.0023045	
66576-51-0	diethylhexatriacontylamine	1038.51	397000	0.0023135	
66576-52-1	dimethyloctatriacontylamine	1076.31	397000	0.0023135	
66576-53-2	ethyloctatriacontylamine	1099.12	393000	0.0023105	
66576-56-5	3,3-dimethyl-2-ethyl-1-butanol	609.23	2869000	0.0004855	0.706
66576-57-6	3,4-dimethyl-1-hexanol	613.27	2835000	0.0004905	0.773
66576-58-7	1,1-diiodononatriacontane	1706.29	400000	0.0023895	
66576-66-7	tripentadecylamine	1076.51	357000	0.0024709	
66576-70-3	1,2-dimethylpropyl propanoate	593	2580000	0.000491	0.735
66576-72-5	1,1-diiodohexatriacontane	1559.68	451000	0.0022215	
66576-85-0	1,1-diiodopentatriacontane	1515.76	470000	0.0021655	
66576-87-2	pentatriacontylamine	1027.97	489000	0.0020245	
66576-88-3	diethylhentriacontylamine	940.41	485000	0.0020335	
66576-89-4	dimethyltritriacontylamine	976.13	485000	0.0020335	
66576-90-7	ethyltritriacontylamine	992.16	480000	0.0020305	
66576-91-8	methyltetratriacontylamine	984.44	480000	0.0020305	
66576-94-1	octatriacontylamine	1091.09	432000	0.0021925	
66576-95-2	diethyltetratriacontylamine	994.85	429000	0.0022015	
66576-96-3	dimethylhexatriacontylamine	1031.69	429000	0.0022015	
66576-97-4	dinonadecylamine	1047.47	425000	0.0021985	
66576-98-5	ethylhexatriacontylamine	1052.8	425000	0.0021985	
66576-99-6	methylheptatriacontylamine	1043.48	425000	0.0021985	
66577-00-2	1,2,6,8-tetramethylnaphthalene	810.54	2389000	0.0006335	0.535
66577-05-7	1,1-diiodoheptatriacontane	1605.93	433000	0.0022775	
66577-08-0	heptatriacontylamine	1068.57	450000	0.0021365	
66577-09-1	diethyltritriacontylamine	975.85	447000	0.0021455	
66577-10-4	dimethylpentatriacontylamine	1012.28	447000	0.0021455	
66577-11-5	ethylpentatriacontylamine	1030.72	442000	0.0021425	
66577-12-6	methylhexatriacontylamine	1024.15	442000	0.0021425	
66577-13-7	1,1-diiodooctatriacontane	1654.72	416000	0.0023335	
66577-14-8	2,4-dimethyl-1-ethylnaphthalene	811.44	2424000	0.0006335	0.536
66577-15-9	4,6-dimethyl-1-ethylnaphthalene	811.44	2424000	0.0006335	0.536
66577-16-0	1-methyl-3-isopropylnaphthalene	817.54	2480000	0.0006275	0.507
66577-17-1	7-methyl-1-isopropylnaphthalene	807.6	2450000	0.0006315	0.524
66577-18-2	3-methyl-2-isopropylnaphthalene	817.54	2480000	0.0006275	0.507
66577-19-3	3-methyl-2-propylnaphthalene	812.35	2460000	0.0006335	0.537
66577-20-6	1,2,3,6-tetramethylnaphthalene	810.54	2389000	0.0006335	0.535
66577-21-7	1,2,4,6-tetramethylnaphthalene	810.54	2389000	0.0006335	0.535
66577-22-8	1,2,4,8-tetramethylnaphthalene	810.54	2389000	0.0006335	0.535
66577-24-0	diethyldotriacontylamine	956.87	465000	0.0020895	
66577-25-1	dimethyltetratriacontylamine	992.92	465000	0.0020895	
66577-26-2	ethyltetratriacontylamine	1011.41	460000	0.0020865	
66577-27-3	methylpentatriacontylamine	1002.31	460000	0.0020865	
66577-30-8	3-thiatetradecane	748.42	1667000	0.0008175	0.667
66577-31-9	4-thiatetradecane	748.42	1667000	0.0008175	0.667
66577-32-0	5-thiatetradecane	748.42	1667000	0.0008175	0.667
66577-37-5	1,7-diethylnaphthalene	812.35	2460000	0.0006335	0.537
66577-38-6	1,2-dimethyl-4-ethylnaphthalene	811.44	2424000	0.0006335	0.536
66577-39-7	1,2-dimethyl-7-ethylnaphthalene	811.44	2424000	0.0006335	0.536
66577-40-0	1,3-dimethyl-5-ethylnaphthalene	811.44	2424000	0.0006335	0.536
66577-48-8	diethyltridecylamine	712.65	1265000	0.0010255	0.791
66577-51-3	trans-1-fluoro-1-heptadecene	750.1	1237000	0.0009855	0.747
66577-52-4	cis-1-iodo-1-heptadecene	802.73	1257000	0.0010555	0.743
66577-53-5	trans-1-iodo-1-heptadecene	802.73	1257000	0.0010555	0.743
66577-55-7	1,1-diiodoheptadecane	976.52	1201000	0.0011575	0.767
66577-57-9	1,3-heptadecanediol	811.07	1415000	0.0010195	1.188
66577-59-1	1,17-heptadecanediol	820.62	1407000	0.0010255	1.187
66577-60-4	2-heptadecanethiol	777	1300000	0.001022	0.797
66577-61-5	4-thiaoctadecane	798.63	1246000	0.0010415	0.774
66577-62-6	5-thiaoctadecane	798.63	1246000	0.0010415	0.774
66577-63-7	cis-1-fluoro-1-heptadecene	750.1	1237000	0.0009855	0.747
66587-65-3	1,1-diiodobutane	726.41	3727000	0.0004295	0.287
66587-66-4	2,3-diiodobutane	732.32	3764000	0.0004235	0.258
66587-77-7	1,1,3-trifluoro-2-methylpropane	429.75	3376000	0.0003015	0.33
66587-78-8	1,3-diiodo-2-(iodomethyl)-propane	856.37	3629000	0.0005175	0.331
66587-82-4	1,1,4-triiodobutane	856.37	3629000	0.0005175	0.331
666-21-7	2,3-difluorobutane	487.02	3560000	0.0002835	0.277
66610-39-7	sec-butyl methyl ether (d)	497.32	3409000	0.0003308	0.327
66610-91-1	2,3-diethylnaphthalene	812.35	2460000	0.0006335	0.537
66610-92-2	1,4-dimethyl-6-ethylnaphthalene	811.44	2424000	0.0006335	0.536
66675-32-9	1,1,2-trichlorobutane	628.34	3472000	0.0003945	0.332
66675-34-1	cis-1-fluoro-1-butene	455.25	3931000	0.0002575	0.251
66675-35-2	trans-1-fluoro-1-butene	455.25	3931000	0.0002575	0.251
66675-38-5	cis-2-fluoro-2-butene	467.83	3956000	0.0002585	0.227
66675-39-6	trans-2-fluoro-2-butene	467.83	3956000	0.0002585	0.227
66675-40-9	1,3-difluoro-2-(fluoromethyl)-propane	426.87	3345000	0.0003075	0.36
66675-46-5	1,1-diiodoheptane	780.77	2696000	0.0005975	0.421
66688-32-2	1,4-diiodo-2-methylbutane	744.5	3326000	0.0004855	0.332
66688-33-3	2,2-diiodo-3-methylbutane	759.04	3400000	0.0004745	0.242
66688-34-4	2,3-diiodo-2-methylbutane	759.04	3400000	0.0004745	0.242
66688-35-5	1,1-diiodopentane	744.5	3326000	0.0004855	0.332
66688-36-6	1,3-diiodopentane	744.5	3326000	0.0004855	0.332
66688-37-7	2,2-diiodopentane	752.99	3368000	0.0004805	0.271
66688-38-8	2,3-diiodopentane	750.13	3357000	0.0004795	0.302
66688-39-9	3,3-diiodopentane	752.99	3368000	0.0004805	0.271
66688-43-5	1,3-difluoro-2-methylbutane	463.41	3185000	0.0003395	0.321
66688-44-6	1,3-difluoro-3-methylbutane	463.73	3196000	0.0003405	0.29
66688-45-7	1,4-difluoro-2-methylbutane	460.3	3156000	0.0003455	0.351
66688-46-8	2,3-difluoropentane	491	3185000	0.0003395	0.321
66688-47-9	2,4-difluoropentane	491	3185000	0.0003395	0.321
66688-49-1	1,3-diiodo-2,2-dimethylpropane	752.99	3368000	0.0004805	0.271
66688-50-4	1,1-diiodo-2-methylbutane	750.13	3357000	0.0004795	0.302
66688-51-5	1,1-diiodo-3-methylbutane	750.13	3357000	0.0004795	0.302
66688-52-6	1,2-diiodo-2-methylbutane	752.99	3368000	0.0004805	0.271
66688-53-7	1,2-diiodo-3-methylbutane	750.13	3357000	0.0004795	0.302
66688-54-8	1,3-diiodo-2-methylbutane	750.13	3357000	0.0004795	0.302
66688-55-9	1,3-diiodo-3-methylbutane	752.99	3368000	0.0004805	0.271
66688-56-0	1-iodo-trans-2-pentene	624.39	3594000	0.0003835	0.286
66688-57-1	2-iodo-cis2-pentene	628.8	3616000	0.0003845	0.261
66688-58-2	2-iodo-trans-2-pentene	628.8	3616000	0.0003845	0.261
66688-59-3	2-iodo-1-pentene	614.94	3573000	0.0003855	0.271
66688-60-6	3-iodo-trans-2-pentene	628.8	3616000	0.0003845	0.261
66688-61-7	3-iodo-1-pentene	615.43	3586000	0.0003785	0.267
66688-62-8	4-iodo-cis2-pentene	629.33	3629000	0.0003775	0.257
66688-63-9	4-iodo-trans-2-pentene	629.33	3629000	0.0003775	0.257
66688-64-0	5-iodo-cis2-pentene	624.39	3594000	0.0003835	0.286
66688-66-2	1,3-difluoro-2,2-dimethylpropane	463.73	3196000	0.0003405	0.29
66688-67-3	1,1-difluoro-2-methylbutane	463.41	3185000	0.0003395	0.321
66688-68-4	1,2-difluoro-2-methylbutane	463.73	3196000	0.0003405	0.29
66688-69-5	1,2-difluoro-3-methylbutane	463.41	3185000	0.0003395	0.321
66688-72-0	cis-1-chloro-1-nonene	662.93	2341000	0.0005685	0.474
66688-73-1	trans-1-chloro-1-nonene	662.93	2341000	0.0005685	0.474
66688-74-2	cis-1-fluoro-1-nonene	571.18	2323000	0.0005375	0.473
66688-75-3	trans-1-fluoro-1-nonene	571.18	2323000	0.0005375	0.473
66702-87-2	3-fluoro-trans-2-pentene	482.63	3518000	0.0003145	0.271
66702-88-3	3-fluoro-1-pentene	469.68	3489000	0.0003085	0.276
66702-89-4	4-fluoro-cis2-pentene	482.91	3530000	0.0003075	0.266