CASRN	Chemical	Tc	Pc	Vc	omega
66702-90-7	4-fluoro-trans-2-pentene	482.91	3530000	0.0003075	0.266
66702-91-8	4-fluoro-1-pentene	469.68	3489000	0.0003085	0.276
66702-92-9	5-fluoro-cis2-pentene	479.34	3497000	0.0003135	0.296
66702-93-0	5-fluoro-trans-2-pentene	479.34	3497000	0.0003135	0.296
66702-95-2	trans-1-iodo-2-methyl-1-butene	628.8	3616000	0.0003845	0.261
66702-96-3	trans-1-iodo-3-methyl-1-butene	629.33	3629000	0.0003775	0.257
66702-97-4	1-iodo-2-methyl-cis2-butene	628.8	3616000	0.0003845	0.261
66702-98-5	1-iodo-2-methyl-trans-2-butene	628.8	3616000	0.0003845	0.261
66702-99-6	2-iodo-3-methyl-2-butene	633.35	3638000	0.0003855	0.236
66703-00-2	3-iodo-2-methyl-1-butene	630.52	3607000	0.0003795	0.242
66703-01-3	4-iodo-3-methyl-1-butene	615.43	3586000	0.0003785	0.267
66703-02-4	cis-1-iodo-1-pentene	641.17	3594000	0.0003835	0.286
66703-03-5	trans-1-iodo-1-pentene	641.17	3594000	0.0003835	0.286
66703-04-6	1-iodo-cis2-pentene	624.39	3594000	0.0003835	0.286
66703-05-7	1,1-diiodononane	817.53	2229000	0.0007095	0.508
66719-29-7	2,4-diiodopentane	750.13	3357000	0.0004795	0.302
66719-30-0	3,4-dimethyl-4-octanol	616.49	2359000	0.0005975	0.788
66719-31-1	3,6-dimethyl-4-octanol	613.56	2352000	0.0005965	0.822
66719-32-2	4,5-dimethyl-1-octanol	638.34	2334000	0.0006025	0.852
66719-33-3	4,6-dimethyl-1-octanol	638.34	2334000	0.0006025	0.852
66719-34-4	4,7-dimethyl-1-octanol	638.34	2334000	0.0006025	0.852
66719-35-5	7,7-dimethyl-1-octanol	641.29	2341000	0.0006035	0.819
66719-36-6	3-ethyl-1-octanol	631.54	2316000	0.0006085	0.883
66719-37-7	2-methyl-3-ethyl-3-heptanol	619.35	2359000	0.0005975	0.788
66719-40-2	3-ethyl-6-methyl-3-heptanol	629	2355000	0.000598	0.793
66719-41-3	4-methyl-2-isopropyl-1-hexanol	625.97	2307000	0.0006115	0.822
66719-43-5	5-methyl-3-nonanol	634.39	2334000	0.0006025	0.852
66719-44-6	5-methyl-4-nonanol	634.39	2334000	0.0006025	0.852
66719-47-9	2,2-dimethyl-4-ethyl-3-hexanol	614.44	2377000	0.0005915	0.757
66719-48-0	2,4-dimethyl-4-ethyl-3-hexanol	614.24	2377000	0.0005915	0.757
66719-50-4	3,4-dimethyl-3-isopropyl-2-pentanol	610.96	2350000	0.0006005	0.728
66719-51-5	4,4-dimethyl-3-isopropyl-1-pentanol	608.9	2377000	0.0005915	0.757
66719-52-6	2,2-dimethyl-4-octanol	615.36	2359000	0.0005975	0.788
66719-53-7	2,5-dimethyl-4-octanol	613.56	2352000	0.0005965	0.822
66719-54-8	2,6-dimethyl-4-octanol	613.56	2352000	0.0005965	0.822
66719-55-9	2,7-dimethyl-3-octanol	617.73	2352000	0.0005965	0.822
66731-94-0	4-methyl-5-ethyl-3-heptanol	616.21	2352000	0.0005965	0.822
66731-95-1	5-methyl-2-nonanol	640.97	2334000	0.0006025	0.852
66793-71-3	2,5,5-trimethyl-2-hexanol	634.35	2624000	0.0005365	0.682
66793-72-4	2,5,5-trimethyl-3-hexanol	598.36	2616000	0.0005355	0.716
66793-73-5	3,4,4-trimethyl-1-hexanol	624.94	2595000	0.0005415	0.748
66793-74-6	3,4,4-trimethyl-3-hexanol	597.8	2624000	0.0005365	0.682
66793-75-7	4,5,5-trimethyl-1-hexanol	639.75	2595000	0.0005415	0.748
66793-76-8	ethylheptylamine	622.2	2310000	0.000565	0.575
66793-80-4	4-methyl-3-octanol	611.68	2566000	0.0005465	0.814
66793-81-5	5-methyl-2-octanol	605.01	2566000	0.0005465	0.814
66793-82-6	6-methyl-4-octanol	606.35	2566000	0.0005465	0.814
66793-83-7	7-methyl-2-octanol	605.01	2566000	0.0005465	0.814
66793-84-8	7-methyl-3-octanol	611.68	2566000	0.0005465	0.814
66793-85-9	3-propyl-1-hexanol	612.65	2546000	0.0005525	0.846
66793-86-0	2,3,3,4-tetramethyl-2-pentanol	620.23	2646000	0.0005305	0.651
66793-87-1	2,3,4,4-tetramethyl-2-pentanol	620.23	2646000	0.0005305	0.651
66793-88-2	3,3,4,4-tetramethyl-2-pentanol	620.44	2646000	0.0005305	0.651
66793-89-3	2,2,4-trimethyl-3-hexanol	598.56	2616000	0.0005355	0.716
66793-90-6	2,3,4-trimethyl-3-hexanol	594.3	2616000	0.0005355	0.716
66793-91-7	2,4,4-trimethyl-2-hexanol	634.35	2624000	0.0005365	0.682
66793-92-8	2,4,4-trimethyl-3-hexanol	601.27	2616000	0.0005355	0.716
66793-93-9	2,4,5-trimethyl-2-hexanol	630.85	2616000	0.0005355	0.716
66793-94-0	3,3-diethyl-2-pentanol	620.7	2595000	0.0005415	0.748
66793-95-1	2,2-dimethyl-3-ethyl-1-pentanol	620.7	2595000	0.0005415	0.748
66793-96-2	2,2-dimethyl-3-ethyl-3-pentanol	608.69	2624000	0.0005365	0.682
66793-97-3	2,3-dimethyl-3-ethyl-2-pentanol	627.54	2624000	0.0005365	0.682
66793-98-4	2,4-dimethyl-2-ethyl-1-pentanol	620.9	2595000	0.0005415	0.748
66793-99-5	2,2-dimethyl-4-heptanol	602.05	2595000	0.0005415	0.748
66794-00-1	2,3-dimethyl-2-heptanol	612.62	2595000	0.0005415	0.748
66794-02-3	2-methyl-3-ethyl-2-hexanol	607.43	2595000	0.0005415	0.748
66794-03-4	2-methyl-3-ethyl-3-hexanol	615.65	2595000	0.0005415	0.748
66794-04-5	3-methyl-2-ethyl-1-hexanol	621	2566000	0.0005465	0.814
66794-05-6	3-methyl-4-ethyl-3-hexanol	608.58	2595000	0.0005415	0.748
66794-06-7	4-methyl-2-ethyl-1-hexanol	623.87	2566000	0.0005465	0.814
66794-07-8	5-methyl-2-ethyl-1-hexanol	621	2566000	0.0005465	0.814
66794-20-5	1,2,2,3-tetraiodopropane	983.52	4031000	0.0005445	0.268
66794-21-6	1,1,2,3-tetraiodopropane	978.29	4016000	0.0005435	0.3
66794-23-8	1,2-diiodo-2-methylpropane	735.41	3778000	0.0004245	0.227
66794-30-7	1,1,3,3-tetrafluoropropane	449.44	3586000	0.0002635	0.338
66794-31-8	1,1,1,2-tetraiodopropane	992.1	4073000	0.0005385	0.239
66794-32-9	1,1,1,3-tetraiodopropane	983.52	4031000	0.0005445	0.268
66794-33-0	1,1,2,2-tetraiodopropane	992.1	4073000	0.0005385	0.239
66794-34-1	1,1,3,3-tetraiodopropane	978.29	4016000	0.0005435	0.3
66794-36-3	1,2,3-trifluoropropane	401.66	3750000	0.0002515	0.315
66794-46-5	1,2-dimethylpropyl formate	573	3170000	0.000381	0.409
66810-87-5	3,5,5-trimethyl-3-hexanol	597.6	2624000	0.0005365	0.682
66826-79-7	1,1-diiodotetradecane	913.9	1482000	0.0009895	0.697
66826-84-4	4-thiapentadecane	762.23	1544000	0.0008735	0.7
66827-02-9	cis-1-bromo-1-tetradecene	738.68	1678000	0.0008615	0.733
66827-03-0	trans-1-bromo-1-tetradecene	738.68	1678000	0.0008615	0.733
66827-04-1	cis-1-chloro-1-tetradecene	745.1	1541000	0.0008485	0.669
66827-05-2	trans-1-chloro-1-tetradecene	745.1	1541000	0.0008485	0.669
66827-06-3	cis-1-fluoro-1-tetradecene	682.24	1532000	0.0008175	0.668
66827-07-4	trans-1-fluoro-1-tetradecene	682.24	1532000	0.0008175	0.668
66827-08-5	cis-1-iodo-1-tetradecene	771.57	1560000	0.0008875	0.661
66827-09-6	trans-1-iodo-1-tetradecene	771.57	1560000	0.0008875	0.661
6697-15-0	13-cyclohexylpentacosane	905.99	621000	0.0017125	
67-56-1	methyl alcohol	512.64	8097000	0.000118	0.564
67-63-0	isopropyl alcohol	508.31	4764000	0.0002201	0.669
67-64-1	acetone	508.2	4702000	0.000209	0.306
67-66-3	chloroform	536.4	5472000	0.000239	0.222
67-68-5	dimethyl sulfoxide	729	5650000	0.000227	0.281
67-72-1	hexachloroethane	695	3340000	0.000412	0.239
6702-10-9	DL-erythro-4-methyl-2,3-pentanediol	685.78	3976000	0.0003915	1.143
6703-80-6	11-phenylheneicosane	860.93	826000	0.0014395	0.733
6703-82-8	heneicosylcyclopentane	850.13	801000	0.0014325	0.705
6703-98-6	n-hectane	1215.25	151000	0.005984	
6703-99-7	(1-decylundecyl)cyclohexane	864.14	769000	0.0014805	
6709-39-3	2,6-dimethyl-1,5-heptadiene	616	3280000	0.0004007	
6728-26-3	trans-2-hexenal	590	3700000	0.0003101	
6728-31-0	4-heptenal	610	3300000	0.000358	
6734-98-1	4-chloro-2-hexene	583.61	3160000	0.0004005	0.341
67363-95-5	3-ethylfuran	556.26	4255000	0.0003065	0.333
674-76-0	trans-4-methyl-2-pentene	501	3220000	0.000346	0.255
674-82-8	diketene	616	5960000	0.000234	0.382
6742-54-7	undecylbenzene	764	1672000	0.00091	0.738
675-56-9	4-fluoro-1-butene	441.88	3882000	0.0002585	0.261
67590-77-6	2-hexenylbenzene	723	2550000	0.0005863	
676-44-8	1-fluoroeicosane	756.8	930000	0.001158	0.782
6765-39-5	1-heptadecene	736	1410000	0.000955	0.753
677-21-4	3,3,3-trifluoropropene	378.59	3609000	0.000211	0.265
677-56-5	1,1,1,2,2,3-hexafluoropropane	401.21	3311000	0.0003455	0.409
67700-26-9	4-octeN-1-ol	615	3100000	0.0003875	
67747-70-0	2-chloro-2-pentene	561.69	3541000	0.0003432	0.275
67749-11-5	hexadecyl neodecanoate	845	910000	0.0014478	
6776-19-8	ethyl cis-2-butenoate	569	3250000	0.000376	0.434
6785-23-5	undecylcyclopentane	743.3	1509000	0.0008725	0.638
67874-80-0	3,7-dimethyloctanyl butyrate	720.2	1390000	0.000867	0.62
6789-80-6	cis-3-hexenal	590	3700000	0.0003101	
679-86-7	1,1,2,2,3-pentafluoropropane	447.44	3444000	0.0002765	0.33
6790-27-8	3-dodecyne	677.19	2047000	0.0006695	0.498
6795-87-5	methyl sec-butyl ether	498	3410000	0.000329	0.306
6795-88-6	methyl 1-methylbutyl ether	535.12	3076000	0.0003835	0.359
67952-57-2	1,5-dimethylhexyl acetate	650.6	2080000	0.0006175	0.574
68-11-1	thioglycolic acid	733	6100000	0.000239	0.56
68-12-2	N,N-dimethylformamide	649.6	4420000	0.000262	0.318
680-00-2	1,1,2,2,3,3-hexafluoropropane	417.09	3153000	0.0003185	0.358
68107-05-1	2-hexanamine, (±)	559.92	3283000	0.0003975	0.404
6812-38-0	hexadecylcyclohexane	813.42	1024000	0.0012005	0.741
6812-39-1	hexadecylcyclopentane	797.25	1072000	0.0011525	0.748
6812-78-8	α-citronellol	643	2300000	0.0005276	
68171-33-5	isopropyl isostearate	785	1160000	0.0011273	
68266-67-1	1,2-dichloro-3,4-dimethylbenzene	735	3300000	0.000446	
6836-38-0	6-dodecanol	712.9	1970000	0.0007045	0.635
684-16-2	hexafluoroacetone	357.14	2837000	0.000329	0.364
684-84-4	2-methyl-1,3-butanediol	615.15	4456000	0.0003415	1.142
6849-18-9	ethyl 4-methyl-3-pentenoate	616	2600000	0.0004705	
6850-35-7	3-methylcyclohexylamine	622	3490000	0.000393	0.386
6850-36-8	2-ethylcyclohexanamine	642	3100000	0.0004487	
686-65-7	1,2-difluorobutane	487.3	3526000	0.0002895	0.306
6863-58-7	di-sec-butyl ether	559	2530000	0.000494	0.432
68680-98-8	s-3,7-dimethyl-1-octanol	629	2355000	0.000598	0.793
6876-18-2	2-methyl-3-isopropylheptane	624.32	1975000	0.0006335	0.449
6876-23-9	trans-1,2-dimethylcyclohexane	596.15	2938000	0.00046	0.238
688-52-8	3-propyl-3-hexeN-1-yne	595	3000000	0.0004248	
688-74-4	tributyl borate	743.15	1989000	0.000863	0.189
688-84-6	2-ethylhexyl methacrylate	694	2250000	0.0005923	
6886-16-4	2,5-dimethyl-1-hexanol	610.77	2835000	0.0004905	0.773
689-97-4	vinylacetylene	454	4860000	0.000205	0.118
6891-45-8	2-butyl-4-methylphenol	751	2980000	0.000546	0.569
6897-76-3	1,2,5-trimethyl-8-isopropylnaphthalene	808.25	2165000	0.0007433	0.605
6897-88-7	1,3,8-trimethyl-5-isopropylnaphthalene	808.25	2165000	0.0007433	0.605
69-72-7	salicylic acid	739	5180000	0.000364	0.832
690-08-4	4,4-dimethyl-trans-2-pentene	528.63	3022000	0.0003965	0.243
690-37-9	2,4,4-trimethyl-2-pentanol	579.96	2903000	0.0004805	0.639
690-39-1	1,1,1,3,3,3-hexafluoropropane	406.85	3311000	0.0002895	0.321
690-92-6	2,2-dimethyl-cis3-hexene	559.69	2727000	0.0004525	0.287
690-93-7	2,2-dimethyl-trans-3-hexene	552.92	2727000	0.0004525	0.287
691-37-2	4-methyl-1-pentene	496	3220000	0.000345	0.239
691-38-3	cis-4-methyl-2-pentene	499	3220000	0.000346	0.244
691-42-9	1,3-difluorobutane	502.38	3526000	0.0002895	0.306
69112-21-6	trans-3-hexenal	590	3700000	0.0003101	
6912-05-6	1,5-dimethyl-4-isopropylcyclopentene	647.47	2598000	0.0005225	0.403
6915-15-7	malic acid	781	5070000	0.000331	1.526
692-24-0	2-methyl-trans-3-hexene	533.44	2986000	0.0004015	0.302
692-45-5	vinyl formate	498	5020000	0.000217	0.285
692-47-7	cis-1,2-di-tert-butylethene	616.98	2185000	0.0005813	0.457
692-48-8	trans-2,2,5,5-tetramethyl-3-hexene	616.98	2185000	0.0005813	0.457
692-70-6	2,5-dimethyl-trans-3-hexene	550.28	2718000	0.0004515	0.317
692-86-4	ethyl 10-undecenoate	716	1900000	0.0007174	
692-96-6	2-methyl-trans-3-heptene	560.58	2696000	0.0004575	0.347
6920-22-5	1,2-hexanediol	650.1	3897000	0.0004035	1.214
6920-24-7	1,2-hexadecanediol	781.52	1523000	0.0009635	1.232
6923-20-2	cis-1,2-dichloropropene	577	4380000	0.000277	0.206
69295-21-2	3-chloro-2-(chloromethyl)-1-butene	660	3500000	0.000376	
693-02-7	1-hexyne	516	3620000	0.000322	0.333
693-09-4	1,1,1-trifluoroheptane	527.9	2400000	0.000467	0.439
693-16-3	2-aminooctane	601.45	2652000	0.0005176	0.5
693-19-6	7-methyloctanoic acid	703	2450000	0.000547	0.831
693-39-0	1-nitroheptane	675.3	2835000	0.0005095	0.599
693-54-9	2-decanone	656.59	2236000	0.0006015	0.612
693-58-3	1-bromononane	682.65	2468000	0.0006015	0.568
693-61-8	trans-2-undecene	637.84	2023000	0.0006378	0.504
693-62-9	trans-4-undecene	637.84	2023000	0.0006378	0.504
693-65-2	dipentyl ether	622	2090000	0.000593	0.601
693-67-4	1-bromoundecane	713.07	2057000	0.0007135	0.651
693-72-1	trans-11-octadecenoic acid	936	1500000	0.0010856	
693-83-4	11-thiaheneicosane	832.33	1027000	0.0012095	0.795
693-89-0	1-methylcyclopentene	542	4130000	0.000303	0.232
6931-70-0	2,3-dimethyl-2,3-pentanediol	695.12	3594000	0.0004435	1.069
6931-71-1	3,4-diethyl-3,4-hexanediol	716.12	2530000	0.000629	1.315
6938-66-5	1-bromodocosane	837.39	940000	0.0013295	0.814
694-35-9	3-ethylcyclopentene	565.35	3569000	0.0003545	0.27
6946-24-3	1-bromotetracosane	858.84	839000	0.0014415	0.755
69498-28-8	1,4-dibromo-2-methylbutane	654.58	4152000	0.0004335	0.48
695-28-3	3,3-dimethylcyclohexene	599.77	3460000	0.0004005	0.247
695-98-7	2,3,5-trimethylpyridine	653	3330000	0.000417	0.376
6950-79-4	aniline, p-isopropyl-N-methyl-,	690	2985000	0.0005255	0.69
69542-91-2	2,4-dimethylcyclohexanol	645	3590000	0.0004482	
696-29-7	isopropylcyclohexane	627	2850000	0.000464	0.33
696-30-0	4-isopropylpyridine	653	3330000	0.000417	0.376
696-44-6	N,3-dimethylaniline	695.58	3684000	0.000432	0.433
6964-04-1	3-methyl-2,4-heptanediol	692.04	3100000	0.000517	1.28
69668-88-8	cis-3-hepteN-2-one	615	3560000	0.0003913	
6969-16-0	2-tridecenoic acid	836	1900000	0.0007763	
697-82-5	2,3,5-trimethylphenol	737.64	3718000	0.0003655	0.494
69745-49-9	1,6,6-trimethylcyclohexene	620	2860000	0.0004518	
6975-92-4	2,5-dimethyl-1-hexene	561.65	2682000	0.0004595	0.332
6975-98-0	2-methyldecane	631.76	1948000	0.0006455	0.507
6975-99-1	6-dodecyne	677.2	2040000	0.0006695	0.503
6976-00-7	7-ethyl-2-methyl-4-undecanone	712.65	1601000	0.0008255	0.759
6976-72-3	heptyl hexanoate	682	1740000	0.000776	0.759
698-71-5	3-methyl-5-ethylphenol	739.51	3787000	0.0003655	0.495
698-87-3	1-phenyl-2-propanol	678	3490000	0.00044	0.75
6982-25-8	DL-2,3-butanediol	611	5130000	0.000267	1.106
69928-30-9	3,5-dimethyl-3-hydroxyhexane-4-carboxylic acid b-lactone	756	2500000	0.0005459	
6995-30-8	1-isopropyl-2,4,7-trimethylnaphthalene	808.25	2165000	0.0007433	0.605
700-12-9	pentamethylbenzene	719.15	2870000	0.000538	0.464
7003-32-9	2-methylcyclohexylamine; (cis+trans)	622	3490000	0.000393	0.386
7005-47-2	2-dimethylamino-2-methyl-1-propanol	681	3440000	0.000436	0.97
70116-68-6	3-methyl-2-butanol, (±)	562.34	3890000	0.0003269	0.577
7013-11-8	2,3-dichloro-1-butene	640	3798000	0.000332	0.302
702-79-4	1,3-dimethyladamantane	708	3000000	0.00057	0.293
7036-98-8	6-methyl-5-noneN-4-one	675	2560000	0.0005842	
7040-43-9	2-tert-butylfuran	600	3870000	0.0003486	
70419-10-2	(S)-2-amino-6-methylheptane	601.45	2652000	0.0005176	0.5
70419-11-3	(R)-2-amino-6-methylheptane	601.45	2652000	0.0005176	0.5
7045-71-8	2-methylundecane	650.71	1792000	0.0007015	0.548
7058-01-7	sec-butylcyclohexane	667	2570000	0.000534	0.274
7069-38-7	trans-1,2-dichloropropene	577	4380000	0.000277	0.206
70690-24-3	1,4-dibromooctane	716.02	2954000	0.0006015	0.616
70732-43-3	8-methyl-4-nonyne	642.22	2446000	0.0005575	0.417
70732-45-5	3,3-dimethyl-4-decyne	677.2	2040000	0.0006695	0.503
7086-07-9	1,1,1,2-tetrachloro-2-methylpropane	690	3400000	0.0004395	
7087-68-5	N-ethyl-N-isopropyl-2-propanamine	601.45	2652000	0.0005176	0.5
7094-26-0	1,1,2-trimethylcyclohexane	624.87	2875000	0.0004695	0.267
7094-27-1	1,1,4-trimethylcyclohexane	609.63	2875000	0.0004695	0.267
7098-20-6	N-dotetracontane	1029.13	383000	0.0025214	
7098-21-7	tritetracontane	1034.97	379000	0.0025811	
7098-22-8	N-tetratetracontane	1040.81	375000	0.0026408	
7098-23-9	N-pentatetracontane	1047.17	371000	0.0027005	
7098-24-0	N-hexatetracontane	1052.47	367000	0.0027602	
7098-25-1	N-heptatetracontane	1057.76	363000	0.0028199	
7098-26-2	N-octatetracontane	1064.1	359000	0.0028796	
7098-27-3	N-nonatetracontane	1068.32	355000	0.0029393	
71-23-8	propyl alcohol	536.78	5175000	0.000219	0.622
71-36-3	butanol	563.05	4423000	0.000275	0.594
71-41-0	1-pentanol	588.1	3897000	0.000326	0.573
71-43-2	benzene	562.05	4895000	0.000256	0.21
71-55-6	1,1,1-trichloroethane	545	4300000	0.000281	0.218
7116-86-1	5,5-dimethyl-1-hexene	553.41	2699000	0.0004535	0.297
71172-57-1	3-ethyl-4-methyl-2-pentanone	624	2640000	0.000469	0.528
713-36-0	2-methyldiphenylmethane	784.15	2727000	0.0006035	0.478
7132-64-1	methyl pentadecanoate	721	1500000	0.0008796	
7145-20-2	2,3-dimethyl-2-hexene	577.66	2701000	0.0004655	0.326
7146-60-3	2,3-dimethyloctane	613	2210000	0.000575	0.433
71500-21-5	allyl 3,5,5-trimethylhexanoate	694	2150000	0.0006198	
7154-75-8	4-methyl-1-pentyne	518.2	3727000	0.0003275	0.226
7154-79-2	2,2,3,3-tetramethylpentane	607.5	2741000	0.000478	0.305
7154-80-5	3,3,5-trimethylheptane	609.5	2320000	0.000577	0.385
71605-85-1	heptyl nonanoate	721	1500000	0.0008875	
717-74-8	1,3,5-triisopropylbenzene	741	1895000	0.00079	0.638
71745-63-6	4-(1,1-dimethylpropyl)-2-methylphenol	755.67	2747000	0.0005987	0.59
7188-38-7	tert-butyl isocyanide	544.72	3444000	0.0003305	0.335
719-79-9	1,1-diphenylbutane	778.3	2200000	0.000777	0.452
7194-84-5	heptatriacontane	993.92	440000	0.0022229	
7194-85-6	octatriacontane	1001.41	422000	0.0022826	
7194-86-7	nonatriacontane	1008.89	406000	0.0023423	
7194-87-8	N-hentetracontane	1022.74	387000	0.0024617	
7212-53-5	5-methyl-1-heptanol	617.71	2811000	0.0004965	0.806
7220-26-0	3-ethyl-2,4-dimethylhexane	616.1	2341000	0.000522	0.385
7225-64-1	9-octylheptadecane	826.84	764000	0.0015065	
7225-66-3	7-hexyltridecane	748.87	1095000	0.0011483	0.741
7225-71-0	1-undecylnaphthalene	846.34	1400000	0.0010255	0.787
72312-48-2	1,2,3-trimethylcyclohexene	620	2860000	0.0004518	
72345-23-4	(2S,4S)-(+)-pentanediol	633.16	4422000	0.0003429	1.144
7239-24-9	dimethylisobutylamine	523.11	3273000	0.0004035	0.361
7261-70-3	N-hexylethylenediamine	715	3150000	0.0005253	
7286-40-0	3-nitrohexane	639	3178000	0.0004475	0.523
7289-44-3	2-thiatridecane	733.68	1806000	0.0007615	0.631
7289-45-4	2-thiahexadecane	775.15	1434000	0.0009295	0.729
7289-52-3	1-methoxy-decane	640	1953000	0.0006455	0.656
7294-05-5	2,2,3-trimethyl-3-pentanol	587.7	2903000	0.0004805	0.639
7300-03-0	3-methyl-3-heptene	564.74	2694000	0.0004588	0.328
7307-55-3	undecylamine	682	2020000	0.000682	0.707
7307-58-6	diethyltetradecylamine	723.91	1183000	0.0010815	0.804
7309-44-6	3-thianonane	660.72	2579000	0.0005375	0.465
7311-30-0	methyldodecylamine	696.8	1690000	0.000785	0.726
7317-85-3	ethyloctadecylamine	773.9	1050000	0.00117	0.981
7318-67-4	1,cis-4-hexadiene	514.53	3460000	0.0003325	0.266
73180-09-3	1-fluorotetradecane	688.7	1430000	0.000828	0.667
7319-00-8	1,trans-4-hexadiene	514.53	3460000	0.0003325	0.266
732-26-3	2,4,6-tri-tert-butylphenol	770	1700000	0.0008549	
7321-48-4	cis-4-chloro-4-octene	640.48	2574000	0.0005125	0.43
73210-25-0	2,2,5-trimethylcyclohexanol	655	3390000	0.0004788	
7327-60-8	nitrilotrisacetonitrile	823	2640000	0.000485	0.924
7328-91-8	2,2-dimethyl-1,3-propanediamine	637.67	4210000	0.000358	0.591
73398-15-9	3-ethyl-2-methyl-1,5-hexadiene	616	3280000	0.0004007	
7344-34-5	4-methyl-1H-indene	693.5	3460000	0.0004345	0.332
7348-71-2	1-bromo-trans-2-pentene	597.03	4021000	0.0003575	0.357
7348-78-9	1-bromo-cis2-pentene	597.03	4021000	0.0003575	0.357
73513-50-5	2-methyl-3-hexenoic acid	716	2900000	0.0004518	
73548-71-7	4,5-dimethyl-2-hexene	564.74	2694000	0.0004588	0.328
73548-72-8	6-methyl-2-heptene	564.74	2694000	0.0004588	0.328
7357-93-9	3-methyl-2-ethyl-1-butene	535.82	2970000	0.0004035	0.288
7359-72-0	1,2,3-trichloro-4-methylbenzene	737	3340000	0.000447	0.26
73642-91-8	1,2-dibromononane	729.44	2668000	0.0006575	0.659
7367-38-6	5-butyl-4-nonene	674.44	1739000	0.0007508	0.592
7372-85-2	2,5-dimethylbiphenyl	792.44	3136000	0.000593	0.458
7372-86-3	2-methyl-6-ethylnaphthalene	766.56	2713000	0.0005775	0.488
7372-92-1	7-methyl-1H-indene	693.5	3460000	0.0004345	0.332
7373-13-9	2-octadecanone	758.47	1203000	0.0010495	0.838
7378-99-6	dimethyloctylamine	650.6	2120000	0.00062	0.415
7379-12-6	2-methyl-3-hexanone	583.8	3022000	0.0004275	0.451
7383-90-6	3,4'-dimethylbiphenyl	808.3	3130000	0.000593	0.414
7385-78-6	3,4-dimethyl-1-pentene	528.31	2980000	0.0003965	0.283
7385-82-2	5-methyl-trans-2-hexene	536.72	2986000	0.0004015	0.302