CASRN	Chemical	Tc	Pc	Vc	omega
506-31-0	9-eicosenoic acid	966	1400000	0.0011947	
506-33-2	trans-13-docosenoic acid	996	1300000	0.001314	
506-37-6	cis-15-tetracosenoic acid	996	1200000	0.0014099	
506-42-3	trans-9-octadeceN-1-ol	755	1350000	0.0009913	
506-46-7	hexacosanoic acid	894	870000	0.0014795	
506-48-9	octacosanoic acid	918	830000	0.0015743	
506-50-3	triacontanoic acid	942	790000	0.0016777	
506-51-4	1-tetracosanol	841.6	940000	0.0014357	
506-52-5	1-hexacosanol	851.6	890000	0.0015186	
506-68-3	cyanogen bromide	545.03	7008000	0.00019399	0.254
506-77-4	cyanogen chloride	449	5990000	0.000163	0.32
506-80-9	diselenide, carbon	665.03	7718000	0.0001877	
50623-57-9	butyl nonanoate	674	1740000	0.00081	0.728
507-09-5	thioacetic-acid	577.34	6921000	0.0002195	0.304
507-16-4	thionyl bromide	661.75	6489000	0.00023232	0.283
507-19-7	2-bromo-2-methylpropane	541.05	4363000	0.0003105	0.252
507-20-0	2-chloro-2-methylpropane	507	3900000	0.0003	0.191
507-25-5	carbon tetraiodide	961.09	5228000	0.0004325	0.181
507-36-8	2-bromo-2-methylbutane	581.23	3858000	0.0003665	0.296
507-45-9	2,3-dichloro-2-methylbutane	633.42	3284000	0.0003965	0.262
50715-02-1	triacontylbenzene	965.65	530000	0.0019435	
50876-31-8	trans-1,1,3,5-tetramethylcyclohexane	667	2570000	0.000534	0.274
50876-32-9	cis-1,1,3,5-tetramethylcyclohexane	667	2570000	0.000534	0.274
50876-33-0	1,1,3,3-tetramethylcyclopentane	586.82	2938000	0.0004755	0.258
509-14-8	tetranitromethane	540	2680000	0.000439	0.705
50902-82-4	3-ethyl-3-methylhexanoic acid	703	2450000	0.000547	0.831
51-80-9	N,N,N',N'-tetramethylmethanediamine	637.67	4210000	0.000358	0.591
51065-65-7	6-methyl-trans-2-heptene	567.85	2696000	0.0004575	0.347
51079-52-8	4,6-dimethyl-2-heptanol	625.72	2587000	0.0005405	0.782
51079-79-9	4,6,6-trimethyl-2-heptanol	622.25	2377000	0.0005915	0.757
51115-02-7	3-methyl-1-isopropylcyclopentene	626.53	2872000	0.0004665	0.359
51115-64-1	2-methylbutyl butanoate	620	2330000	0.0005	0.728
51116-73-5	1-bromo-3-methylpentane	618.02	3392000	0.0004275	0.404
5113-93-9	trans-3-methyl-6-isopropylcyclohexene, (3R)	640	2600000	0.000511	
512-56-1	trimethyl phosphate	729	8370000	0.000277	0.489
51200-80-7	4-methyl-3-ethyl-3-hexanol	608.58	2595000	0.0005415	0.748
51200-81-8	2-methyl-3-isopropyl-3-hexanol	620.04	2332000	0.0006065	0.759
51200-82-9	4-isopropyl-4-heptanol	615.36	2359000	0.0005975	0.788
51200-83-0	2,4-dimethyl-3-isopropyl-3-pentanol	626.57	2350000	0.0006005	0.728
51261-14-4	(<+->)-2-chlorooctane	642.41	2443000	0.0005325	0.462
51299-55-9	2,4,5-trimethylcyclohexanone	690	2950000	0.0004746	
513-35-9	2-methyl-2-butene	470	3420000	0.000292	0.287
513-36-0	1-chloro-2-methylpropane	528	3900000	0.0003	0.242
513-37-1	1-chloro-2-methyl-1-propene	532.31	3996000	0.0002895	0.227
513-38-2	1-iodo-2-methylpropane	563.95	4628000	0.0002725	0.648
513-42-8	2-methyl-2-propeN-1-ol	559	5220000	0.0002232	
513-44-0	isobutyl mercaptan	559	4060000	0.000307	0.253
513-48-4	2-iodobutane	563.37	4628000	0.0002725	0.648
513-49-5	(S)-(+)-sec-butylamine	503.5	3945000	0.0002999	0.331
513-53-1	2-butanethiol	554	4060000	0.000307	0.251
513-81-5	2,3-dimethyl-1,3-butadiene	526	3520000	0.000315	0.214
513-85-9	2,3-butanediol	630.99	5032000	0.0002899	1.127
5131-66-8	1-butoxy-2-propanol	618	2940000	0.0004606	
5132-75-2	octyl heptanoate	708	1580000	0.0008531	
51333-70-1	2,7-nonadiene	616	3280000	0.0004007	
514-10-3	abietic acid	832	1680000	0.000998	1.129
5145-64-2	1-propyl-1H-pyrrole	650	4050000	0.0003503	
5145-99-3	2-methyl-3-thiapentane	585	3400000	0.00037	0.223
515-12-8	1-ethyl-1-methyl-2,4-diisopropylcyclohexane, [1R-(1alpha,2beta,4beta)]	737.79	1662000	0.0008085	0.577
51525-97-4	1,1,3,3-tetrabromopropane	813.01	6785000	0.0004395	0.625
5160-99-6	1-methyl-3-isobutylbenzene	668.49	2630000	0.0005375	0.412
5161-04-6	1-methyl-4-isobutylbenzene	671.35	2630000	0.0005375	0.412
5161-11-5	3,cis-4-dimethylthiacyclopentane	607.56	3660000	0.0003575	0.247
5161-12-6	3,trans-4-dimethylthiacyclopentane	607.56	3660000	0.0003575	0.247
5161-13-7	2,cis-5-dimethylthiacyclopentane	639.17	3660000	0.0003575	0.247
5161-14-8	2,trans-5-dimethylthiacyclopentane	638.36	3660000	0.0003575	0.247
5161-16-0	2-methylthiacyclohexane	660.59	3931000	0.0003505	0.244
5161-17-1	4-methylthiacyclohexane	669.27	3931000	0.0003505	0.244
5161-75-1	2,2-dimethylthiacyclopentane	623.18	4031000	0.0003565	0.235
5161-76-2	3,3-dimethylthiacyclopentane	623.18	4031000	0.0003565	0.235
5161-77-3	2,cis-3-dimethylthiacyclopentane	607.56	3660000	0.0003575	0.247
5161-78-4	2,trans-3-dimethylthiacyclopentane	607.56	3660000	0.0003575	0.247
5161-79-5	2,cis-4-dimethylthiacyclopentane	607.56	3660000	0.0003575	0.247
5161-80-8	2,trans-4-dimethylthiacyclopentane	607.56	3660000	0.0003575	0.247
5162-44-7	4-bromo-1-butene	571.36	4498000	0.0003025	0.323
5162-48-1	2,2,4-trimethyl-3-pentanol	582.81	2894000	0.0004795	0.674
5166-35-8	3-chloro-2-ethyl-1-propene	561.72	3543000	0.0003405	0.252
5166-53-0	5-methyl-3-hexeN-2-one	615	3560000	0.0003913	
517-22-6	3-ethyl-2,4-dimethyl-1H-pyrrole	670	3750000	0.00039	
5171-84-6	3,3,4,4-tetramethylhexane	646.7	2574000	0.000506	0.311
51750-65-3	2,2,4,4-tetramethylhexane	610.2	2249000	0.000535	0.344
51751-87-2	trans-1-bromo-1-octene	643.03	2875000	0.0005255	0.492
51872-48-1	3-bromo-2-methyl-1-butene	573.71	4036000	0.0003535	0.311
51891-58-8	2,2-difluoro-3-methylbutane	467.07	3225000	0.0003345	0.261
519-73-3	triphenylmethane	865	2200000	0.000753	0.574
51916-47-3	1,4-octanediol	713.79	3107000	0.0005155	1.272
51932-19-5	methyl-1-methylbutylamine	560.25	3181000	0.0004005	0.432
5194-50-3	cis-2,trans-4-hexadiene	538	3350000	0.000331	0.275
5194-51-4	trans-2,trans-4-hexadiene	535	3350000	0.000331	0.282
5195-37-9	1,2,3,4-tetrahydro-1,3-dimethylnaphthalene	737.62	2773000	0.0005485	0.424
5195-40-4	1,2,3,4-tetrahydro-1,2-dimethylnaphthalene	737.62	2773000	0.0005485	0.424
51952-42-2	5-bromo-2-pentene	586.22	4033000	0.0003562	0.334
52019-78-0	(S)-(+)-2-hexanol	581.8	3461000	0.0003774	0.582
5205-34-5	5-decanol	621.25	2316000	0.0006085	0.883
5209-18-7	1,3-diphenyl-1-propene	796.49	2660000	0.0006405	0.465
52112-25-1	2-pentadecyne	729.7	1603000	0.0008375	0.616
52125-53-8	ethyl ether of propylene glycol	582	3670000	0.0003501	0.783
52152-71-3	2-iodobutane, (±)	572.4	4429000	0.00029	0.54
52152-72-4	2-iodopentane, (±)	587.33	4092000	0.0003273	0.676
5223-59-6	1,2-diphenylbutane	778.3	2200000	0.000777	0.452
52254-38-3	2-methyl-1-tetradecene	704.33	1467000	0.0008575	0.642
52254-50-9	2-methyl-1-nonadecene	768.75	1047000	0.0011375	0.746
52315-44-3	1-octylcyclopentene	694.89	1975000	0.0006905	0.532
52317-98-3	methyl-3-methylbutylamine	552.62	3181000	0.0004005	0.432
52356-93-1	cis-1-iodo-1-octene	692.75	2614000	0.0005515	0.419
52387-50-5	1-methyl-3-penteN-1-ol	587	3900000	0.0003038	
52390-72-4	2-heptanol, (±)	587.2	3151000	0.0004341	0.709
52497-07-1	1,3-dichloro-1-butene	640	3798000	0.000332	0.302
5258-50-4	3-methylthiacyclohexane	668.34	3931000	0.0003505	0.244
526-73-8	1,2,3-trimethylbenzene	664.5	3454000	0.000414	0.367
526-75-0	2,3-xylenol	722.95	4900000	0.00036	0.516
526-85-2	2,3,4-trimethylphenol	739.96	3718000	0.0003655	0.494
52627-73-3	tert-decanoic acid	713	2250000	0.0006	0.877
52644-81-2	1-iodohexacosane	912.99	776000	0.0015105	
52663-48-6	octadecyl propanoate	789.9	890000	0.001273	
52670-32-3	2,3,5,6-tetramethylheptane	623.65	1989000	0.0006275	0.421
52670-33-4	2,3,3,4,5-pentamethylhexane	640.29	2009000	0.0006225	0.362
52670-34-5	2,3,6,7-tetramethyloctane	642.6	1829000	0.0006835	0.462
52670-35-6	2,3,3,5,6-pentamethylheptane	644.85	1847000	0.0006785	0.404
52670-36-7	2,3,3,4,4,5-hexamethylhexane	672.82	1864000	0.0006735	0.347
52688-75-2	3-fluorohexane	523.73	2983000	0.0003835	0.342
52688-89-8	1,1,2,2-tetramethylcyclopentane	609.38	2938000	0.0004755	0.258
527-35-5	2,3,5,6-tetramethylphenol	740.86	3262000	0.0004215	0.538
527-53-7	1,2,3,5-tetramethylbenzene	679	2970000	0.000482	0.424
527-54-8	3,4,5-trimethylphenol	761.43	3718000	0.0003655	0.494
527-60-6	2,4,6-trimethylphenol	716.46	3718000	0.0003655	0.494
527-84-4	o-cymene	657	2900000	0.00049	0.366
52708-03-9	4-nonanol, (S)	614.43	2585000	0.0005431	0.768
52713-81-2	4-methyl-1-hexyne	551.35	3326000	0.0003835	0.27
5272-02-6	3-chloro-3-methylheptane	642.41	2443000	0.0005325	0.462
5277-11-2	dimethylheptylamine	630.7	2320000	0.000565	0.404
52783-44-5	heptadecanol (mixed primary isomers)	767.2	1410000	0.000974	0.798
528-29-0	o-dinitrobenzene	831	3850000	0.000434	0.669
528-44-9	1,2,4-benzenetricarboxylic acid	860	3510000	0.000499	1.491
52812-57-4	cis-1-iodo-2-methyl-1-butene	628.8	3616000	0.0003845	0.261
5284-22-0	o-heptylphenol	763.83	2338000	0.0006908	0.626
52841-28-8	methylethyl-tert-butylamine	563.23	2976000	0.0004545	0.344
52896-87-4	4-isopropylheptane	607.6	2229000	0.000537	0.416
52896-88-5	4-ethyl-2-methylheptane	601.8	2189000	0.000545	0.424
52896-89-6	4-ethyl-3-methylheptane	614.3	2280000	0.00053	0.41
52896-90-9	3-ethyl-5-methylheptane	606.6	2229000	0.000541	0.416
52896-91-0	3-ethyl-4-methylheptane	615.5	2280000	0.000533	0.409
52896-92-1	2,2,3-trimethylheptane	611.7	2270000	0.000546	0.378
52896-93-2	2,3,3-trimethylheptane	617.5	2320000	0.000538	0.371
52896-95-4	2,3,4-trimethylheptane	613.7	2290000	0.000538	0.391
52896-99-8	4-ethyl-2,2-dimethylhexane	594.6	2219000	0.000539	0.384
52897-00-4	3-ethyl-2,3-dimethylhexane	626.8	2422000	0.000516	0.359
52897-01-5	4-ethyl-2,3-dimethylhexane	617.3	2341000	0.000524	0.384
52897-03-7	4-ethyl-2,4-dimethylhexane	620.9	2471000	0.000524	0.383
52897-04-8	3-ethyl-2,5-dimethylhexane	603.5	2239000	0.000537	0.397
52897-05-9	4-ethyl-3,3-dimethylhexane	625.7	2422000	0.000513	0.358
52897-06-0	3-ethyl-3,4-dimethylhexane	624.5	2422000	0.000511	0.359
52897-08-2	2,2,3,4-tetramethylhexane	620.4	2371000	0.000525	0.345
52897-09-3	2,2,3,5-tetramethylhexane	601.3	2270000	0.00054	0.357
52897-10-6	2,3,3,4-tetramethylhexane	633.1	2482000	0.000514	0.334
52897-11-7	2,3,3,5-tetramethylhexane	610.1	2320000	0.000531	0.351
52897-12-8	2,3,4,4-tetramethylhexane	626.6	2422000	0.000518	0.339
52897-15-1	2,3,4,5-tetramethylhexane	613.2	2341000	0.00053	0.365
52897-16-2	3,3-diethyl-2-methylpentane	639.9	2533000	0.000501	0.346
52897-17-3	3-ethyl-2,2,3-trimethylpentane	646	2574000	0.000503	0.311
52897-18-4	3-ethyl-2,2,4-trimethylpentane	615.3	2371000	0.000518	0.346
52897-19-5	3-ethyl-2,3,4-trimethylpentane	642.3	2543000	0.000506	0.329
529-20-4	2-methylbenzaldehyde	694	3670000	0.000386	0.435
529-21-5	3-ethyl-4-methylpyridine	653	3330000	0.000417	0.376
530-48-3	1,1-diphenylethene	791.64	2912000	0.0005855	0.431
53043-14-4	6-n-amyl-m-cresol	755.67	2747000	0.0005987	0.59
53045-71-9	3-bromo-1-pentene	580.26	4011000	0.0003525	0.337
5309-52-4	2-ethyl-2-hexenoic acid	736	2700000	0.0004944	
53119-51-0	2-methyl-3-ethylthiophene	645.99	3713000	0.0003875	0.342
53120-74-4	3,3-dimethyl-1,5-pentanediol	644.63	3514000	0.0004545	1.175
53121-23-6	1-iodo-cis2-butene	630.09	4047000	0.0003275	0.242
53161-72-1	1,2-diiodobutane	726.41	3727000	0.0004295	0.281
53172-84-2	(1-methyl-1-butenyl)benzene	703	2800000	0.0005213	
53178-20-4	2-chlorobutane	522.7	3845000	0.0003006	0.253
53184-67-1	nonyl propanoate	693.1	1630000	0.000751	0.716
53193-22-9	1-heptadecanethiol	786.01	1288000	0.0010415	0.783
53225-40-4	3,trans-4-dimethylcyclopentene	557.42	3432000	0.0003535	0.245
53252-08-7	3-ethyl-4-methyl-4-hepteN-2-one	675	2560000	0.0005842	
53252-19-0	2-methyl-4-hexeN-3-one	615	3560000	0.0003913	
53252-20-3	6-methyl-6-noneN-4-one	675	2560000	0.0005842	
53252-21-4	3,4-dimethyl-4-hexeN-2-one	635	3160000	0.0004518	
53268-66-9	cis-1-chloro-1-heptene	613.52	2844000	0.0004565	0.385
53268-67-0	trans-1-chloro-1-heptene	613.52	2844000	0.0004565	0.385
5329-14-6	sulfamic acid			0.000225	
5329-79-3	2-aminohexane	584.76	3345000	0.0003945	0.451
533-98-2	1,2-dibromobutane	659.28	4717000	0.0003775	0.429
53310-02-4	2-amino-2-methylpentane	555.56	3388000	0.0003895	0.387
5332-52-5	1-undecanethiol	710	1980000	0.000676	0.639
5333-42-6	2-octyl-1-dodecanol	791.6	1190000	0.0011365	0.918
53346-71-7	3-pentadecanol	732.87	1565000	0.0008863	0.871
5335-75-1	4-butylpyridine	673	3000000	0.0004694	
53369-71-4	N,N,2,2-tetramethyl-1,3-propanediamine	689	3450000	0.0004654	
5337-72-4	2,6-dimethylcyclohexanol	645	3590000	0.0004482	
53392-86-2	1,1,1-trifluorooctane	554.5	2210000	0.000522	0.467
53398-80-4	trans-2-hexenyl propionate	628	2450000	0.0005048	
53398-85-9	cis-3-hexenyl 2-methylbutyrate	672	2250000	0.0005784	
53399-81-8	ethyl 2-methyl-4-pentenoate	616	2600000	0.0004705	
534-00-9	1-bromo-2-methylbutane, (S)	582.97	3819000	0.0003703	0.342
534-22-5	2-methylfuran	527	4720000	0.000247	0.283
5340-36-3	2-ethyl-2-heptanol	609.4	2574000	0.0005475	0.78
5340-41-0	2,2,3-trimethyl-3-hexanol	607.47	2624000	0.0005365	0.682
5340-62-5	5,5-dimethyl-3-ethyl-3-hexanol	617.38	2384000	0.0005925	0.724
5341-95-7	meso-2,3-butanediol	609.07	5087000	0.0002855	1.103
5343-92-0	1,2-pentanediol	637.98	4409000	0.0003475	1.179
5343-96-4	1,2-dimethylpropyl acetate	576	2840000	0.000436	0.435
53434-74-5	trans-1-bromo-1-heptene	630.55	3196000	0.0004695	0.447
53434-75-6	trans-1-bromo-1-nonene	666.86	2600000	0.0005815	0.536
5344-20-7	1-amino-4-methylpentane	575.91	3345000	0.0003945	0.451
5349-51-9	4-tert-amylcyclohexanol	675	2800000	0.0005895	
535-77-3	m-cymene	649	2810000	0.000494	0.378
53510-18-2	5-methyl-trans-3-heptene	560.58	2696000	0.0004575	0.347
53543-44-5	5-chloro-cis2-pentene	576.34	3530000	0.0003445	0.296
53566-37-3	5-methyl-2-hexyne	572.5	3372000	0.0003835	0.25
53594-82-4	2,2-dimethylheptadecane	746.87	1094000	0.0011483	0.701
536-74-3	ethynylbenzene	650	4280000	0.000332	0.226
536-75-4	4-ethylpyridine	668.2	3980000	0.000367	0.344
536-78-7	3-ethylpyridine	657.7	3980000	0.000367	0.388
536-88-9	4-ethyl-2-methylpyridine	653	3330000	0.000417	0.376
5362-55-0	4-methyl-2-penteN-1-ol	587	3900000	0.0003038	
5362-56-1	4-methyl-2-pentenal	590	3700000	0.0003101	
5363-64-4	hexyl vinyl ether	586	2700000	0.0004524	
53636-17-2	(S)-(+)-1-dimethylamino-2-propanol	626.41	3790000	0.000368	0.841
53696-14-3	6-methyldecanoic acid	725	2095000	0.0006755	0.88
53731-19-4	3-fluoro-1-butene	445.34	3921000	0.0002525	0.232
53731-22-9	1,1-difluoro-3-methylbutane	463.41	3185000	0.0003395	0.321
53731-23-0	1,1-difluoro-2,2-dimethylpropane	467.07	3225000	0.0003345	0.261
53731-24-1	3-fluoro-2-methyl-1-butene	472.95	3510000	0.0003095	0.251
53731-25-2	2,3-difluoro-2-methylbutane	467.07	3225000	0.0003345	0.261
53750-52-0	4-iodo-2-methyl-1-butene	624.84	3573000	0.0003855	0.271
53774-20-2	2-methyl-3-butenoic acid	676	4047000	0.0003165	0.395
53778-43-1	1-methyl-1-ethylcyclopropane	507.94	3718000	0.0003165	0.248
53778-73-7	1-methoxy-2-butanol	582	3670000	0.0003501	0.783
5379-20-4	1-ethenyl-3,5-dimethylbenzene	679.34	2970000	0.0004685	0.375
538-68-1	pentylbenzene	679.9	2604000	0.00055	0.438
538-93-2	isobutylbenzene	650	3050000	0.000478	0.382
53897-51-1	3,4-dimethyl-2-thiapentane	597.54	3225000	0.0004135	0.321
539-30-0	benzyl ethyl ether	662	3110000	0.000442	0.433
539-32-2	3-butylpyridine	673	3000000	0.0004694	
539-82-2	ethyl pentanoate	587.95	2840000	0.000442	0.407
539-90-2	2-methylpropyl butanoate	611	2490000	0.000502	0.422
53939-51-8	nonadecyl acetate	787.4	880000	0.001273	
5395-75-5	3,6-dithiaoctane	673	2750000	0.0004795	0.37
5396-09-8	2,3,5,5-tetramethyl-3-hexanol	640.92	2403000	0.0005865	0.693
5396-58-7	2-methyl-2,3-butanediol	600.61	4522000	0.0003365	1.066
53966-53-3	2-methyl-3-nonene	616.98	2185000	0.0005813	0.457
53971-47-4	2,2,3-trimethylthiacyclopropane	569.72	4099000	0.0003155	0.224
5398-25-4	2,3-dibromopentane	668.68	4195000	0.0004275	0.448
5399-02-0	heptadecanenitrile	779.15	1210000	0.0010135	0.835
540-07-8	pentyl hexanoate	652	2047000	0.0006587	0.639
540-08-9	9-heptadecanone	745.97	1287000	0.0009935	0.827
540-09-0	12-tricosanone	794.72	910000	0.0012252	
540-10-3	hexadecyl hexadecanoate	875	700000	0.0019182	
540-18-1	pentyl butanoate	636.7	2080000	0.000577	0.449
540-36-3	p-difluorobenzene	556	4400000	0.0002995	0.299
540-42-1	2-methylpropyl propanoate	592	2730000	0.000447	0.384
540-43-2	N-methyl-2-heptanamine	601.45	2652000	0.0005176	0.5
540-54-5	1-chloropropane	503.15	4580000	0.000247	0.228
540-59-0	1,2-dichloroethylene, cis and trans	505.67	5190000	0.000224	0.267
540-61-4	aminoacetonitrile	638	5440000	0.000229	0.466
540-63-6	1,2-ethanedithiol	663	5360000	0.000209	0.257
540-67-0	methyl ethyl ether	437.8	4400000	0.000221	0.222
540-82-9	ethyl sulfate	857	8980000	0.000293	0.494
540-84-1	2,2,4-trimethylpentane	543.8	2570000	0.000468	0.303
540-88-5	tert-butyl acetate	545	3170000	0.000389	0.34
54004-41-0	4-methyl-2-propyl-1-pentanol	620.94	2619000	0.0005315	0.813
54004-43-2	1-methylbutyl propanoate	597	2550000	0.000497	0.691
5405-79-8	2,2-dimethyl-3-hexanone	624	2640000	0.000469	0.528
54068-75-6	cis-1-iodo-1-butene	686.08	4047000	0.0003275	0.242
5408-57-1	7-methyl-3-octanone	629.65	2467000	0.0005338	0.541
5408-86-6	2,3-dibromobutane	657.46	4742000	0.0003753	0.415
541-01-5	hexadecamethylheptasiloxane	671.8	677000	0.002133	0.887
541-02-6	decamethylcyclopentasiloxane	619.15	1160000	0.001216	0.666
541-05-9	hexamethylcyclotrisiloxane	554.2	1663000	0.000634	0.474
541-28-6	1-iodo-3-methylbutane	593.01	4078000	0.0003285	0.694
541-31-1	3-methyl-1-butanethiol	604	3500000	0.000364	0.22
541-33-3	1,1-dichlorobutane	584.34	3594000	0.0003515	0.308
541-41-3	ethyl chloroformate	508.15	4500000	0.000274	0.835
541-47-9	3-methyl-2-butenoic acid	676	4083000	0.0003225	0.389
541-73-1	m-dichlorobenzene	683.95	4070000	0.000351	0.279
541-85-5	5-methyl-3-heptanone	624	2640000	0.000469	0.528
54105-66-7	undecylcyclohexane	761.74	1429000	0.0009205	0.646
54105-76-9	isopentylcyclohexane	674.01	2336000	0.0005845	0.413
5412-69-1	5-diethylamino-2-pentanol	760	2900000	0.000557	
5412-92-0	N-(1-methylheptyl)-2-octanamine	732.83	1354000	0.0009536	0.793
54166-32-4	2,6,6-trimethyloctane	624.99	1981000	0.0006345	0.419
542-10-9	ethylidene diacetate	635	3260000	0.000406	0.478
542-37-0	1,1-dimethylpropyl isopentanoate	657.2	1900000	0.000635	0.474
542-50-7	14-heptacosanone	822.72	800000	0.0012739	
542-54-1	4-methylpentanenitrile	615.53	3049000	0.0003915	0.442
542-55-2	isobutyl formate	551.35	3881000	0.000352	0.39
542-69-8	1-iodobutane	621	4320000	0.000343	0.209
542-75-6	1,3-dichloropropene	577	4380000	0.000277	0.206
542-88-1	bis(chloromethyl) ether	579	4580000	0.000258	0.324
542-92-7	cyclopentadiene	507	5150000	0.000225	0.212
54244-90-5	3-ethyl-4-methyl-3-hepteN-2-one	675	2560000	0.0005842	
54265-17-7	trans-1-bromo-2-methyl-1-butene	592.21	4047000	0.0003585	0.331
54268-02-9	1,2,2,3-tetrabromopropane	782.3	6819000	0.0004405	0.587
54287-41-1	3-amino-2-methylpentane	596.83	3376000	0.0003885	0.419
54298-97-4	2-methyl-7-octeN-4-one	655	2860000	0.0005112	
543-49-7	2-heptanol	608.32	3021000	0.000442	0.557
543-59-9	1-chloropentane	568	3350000	0.000352	0.333
543-82-8	2-amino-6-methylheptane	601.45	2652000	0.0005176	0.5
54305-87-2	2,3-dichlorohexane	633.09	2891000	0.0004635	0.397
5432-85-9	4-isopropylcyclohexanone	690	2950000	0.0004746	
54334-64-4	diethylundecylamine	688.97	1457000	0.0009135	0.746
5434-27-5	1,3-dibromo-2,2-dimethylpropane	686.65	4255000	0.0004225	0.382
5434-57-1	hexyl tert-pentanoate	677.2	1770000	0.000693	0.621
5435-64-3	3,5,5-trimethylhexanal	640	2330000	0.000527	0.592
54363-49-4	methylpentadiene, isomers	526.51	3494000	0.0003324	0.25
544-00-3	diisopentylamine	644.56	2159000	0.0006241	0.585
544-01-4	diisopentyl ether	622	2090000	0.000593	0.601
544-02-5	diisopentyl sulfide	701.03	2141000	0.0006495	0.551
544-10-5	1-chlorohexane	596.19	2983000	0.0004205	0.373
544-13-8	glutaronitrile	782	3150000	0.000352	0.603
544-25-2	1,3,5-cycloheptatriene	593.9	4334000	0.0003115	0.324
544-40-1	5-thianonane	650	2500000	0.0005375	0.394
544-63-8	tetradecanoic acid	765	1700000	0.000811	0.936
544-65-0	4-tetradecenoic acid	856	1800000	0.000839	
544-66-1	5-tetradecenoic acid	856	1800000	0.000839	
544-76-3	hexadecane	723	1400000	0.0009692	0.717
544-77-4	1-iodohexadecane	783.25	1446000	0.0009505	1.042
544-85-4	dotriacontane	855	750000	0.0019244	1.377
5441-51-0	4-ethylcyclohexanone	670	3250000	0.0004217	