CASRN	Chemical	Tc	Pc	Vc	omega
879-12-9	1,2,3-trimethylnaphthalene	783.95	2671000	0.0005775	0.492
879-97-0	4-tert-butyl-2,6-dimethylphenol	755.67	2747000	0.0005987	0.59
88-05-1	2,4,6-trimethylaniline	705.58	3284000	0.000482	0.413
88-09-5	2-ethylbutanoic acid	655	3410000	0.000389	0.633
88-18-6	2-tert-butylphenol	725.38	3514000	0.0004105	0.444
88-20-0	2-methylbenzenesulfonic acid			0.000438	
88-60-8	2-tert-butyl-5-methylphenol	751	2980000	0.000546	0.569
88-69-7	2-isopropylphenol	714.75	3897000	0.0003595	0.464
88-72-2	o-nitrotoluene	720	3800000	0.000441	0.482
88-73-3	o-chloronitrobenzene	757	3980000	0.000432	0.486
88-74-4	o-nitroaniline	784	4420000	0.000406	0.741
88-99-3	phthalic acid	800	3950000	0.000424	1.058
88736-68-9	1,2-dimethylpropyl butanoate	608	2350000	0.0005	0.868
88917-22-0	di(propylene glycol) methyl ether acetate, isomers	647	2270000	0.000609	0.702
89-05-4	pyromellitic acid	883	3140000	0.000584	1.83
89-48-5	menthyl acetate	694	2150000	0.0006198	
89-72-5	2-sec-butylphenol	720.28	3468000	0.0004155	0.51
89-83-8	5-methyl-2-propylphenol	780.8	3376000	0.0004215	0.541
89-95-2	2-methylbenzenemethanol	691	3920000	0.000387	0.743
89223-57-4	1-methyl-2-isopropylcyclopentane	610.99	2681000	0.0004773	0.302
89796-76-9	4,4-dichloroheptane	654.02	2614000	0.0005195	0.442
89886-25-9	trans-2-ethylcyclohexanol, (±)	645	3590000	0.0004482	
89896-73-1	3-heptenal	610	3300000	0.000358	
90-00-6	o-ethylphenol	703	4290000	0.000351	0.476
90-02-8	salicylaldehyde	680	4990000	0.000342	0.619
90-05-1	guaiacol	697	4730000	0.000353	0.571
90-11-9	1-bromonaphthalene	824	3700000	0.000453	0.369
90-12-0	1-methylnaphthalene	772	3600000	0.000465	0.342
90-13-1	1-chloronaphthalene	785	3400000	0.000434	0.383
90-42-6	[1,1'-bicyclohexyl]-2-one	787	2740000	0.000569	0.315
90023-96-4	methyl-2-methylbutylamine	560.25	3181000	0.0004005	0.432
90112-75-7	6-methyl-2-heptenoic acid	736	2700000	0.0004944	
90112-82-6	3-hydroxy-2,2-dimethylhexanoic acid, βlactone	736	2700000	0.0004944	
90162-24-6	2,4-octanediol	692.04	3100000	0.000517	1.28
90200-83-2	5-octeN-1-ol	615	3100000	0.0003875	
90202-21-4	2-chloro-2-octene	640.48	2574000	0.0005125	0.43
90226-23-6	N,4-dimethylcyclohexylamine	642	3100000	0.0004487	
90644-60-3	2-noneN-4-yne	595	3000000	0.0004248	
90645-54-8	2,4,6-trimethylcyclohexanone	690	2950000	0.0004746	
90676-55-4	3-methyl-4-octeN-3-ol	629	2700000	0.0004473	
90760-75-1	1,3,5-trimethylcyclohexanol	655	3390000	0.0004788	
90769-70-3	4-isopropyl-1-methylcyclopentene	626.53	2872000	0.0004665	0.359
91-08-7	toluene-2,6-diisocyanate	749	2900000	0.000525	0.434
91-17-8	decahydronaphthalene; (cis+trans)	694.65	3040000	0.00048	0.274
91-20-3	naphthalene	748.4	4050000	0.000407	0.302
91-22-5	quinoline	782.15	4860000	0.000371	0.347
91-23-6	o-nitroanisole	782	3760000	0.000422	0.561
91-57-6	2-methylnaphthalene	761	3500000	0.000465	0.378
91-58-7	2-chloronaphthalene	785	3400000	0.000434	0.383
91-62-3	6-methylquinoline	789.75	3829000	0.0004585	0.452
91-63-4	2-methylquinoline	769	3350000	0.00049	0.359
91-66-7	N,N-diethylaniline	702	2850000	0.000556	0.426
91-67-8	N,N-diethyl-m-toluidine	700	2750000	0.0005661	
91049-43-3	1,2-pentanediol, (±)	633.16	4422000	0.0003429	1.144
917-92-0	3,3-dimethyl-1-butyne	491.15	3778000	0.0003225	0.167
918-02-5	dimethyl-tert-butylamine	545.31	3314000	0.0003985	0.3
918-07-0	2-chloro-2,3,3-trimethylbutane	621.08	2693000	0.0004765	0.418
918-82-1	3,3-dimethyl-1-pentyne	528.91	3368000	0.0003785	0.21
918-84-3	3-chloro-3-methylpentane	582.19	3046000	0.0004095	0.283
918-85-4	3-methyl-1-penteN-3-ol	587	3900000	0.0002989	
91840-99-2	2-butanethiol	553	4038000	0.000307	0.242
919-12-0	3-ethyl-3-methyl-1-pentyne	594.1	2959000	0.0004443	0.359
919-94-8	2-ethoxy-2-methylbutane	546	2740000	0.000452	0.338
92-06-8	m-terphenyl	883	2480000	0.000724	0.651
92-24-0	naphthacene	987	2390000	0.00069	0.565
92-51-3	bicyclohexyl	727	2560000	0.000598	0.428
92-52-4	phenylbenzene (biphenyl)	773	3380000	0.000497	0.403
92-67-1	p-aminodiphenyl	867	3290000	0.000572	0.542
92-87-5	p-benzidine	929	3300000	0.000596	0.735
92-94-4	p-terphenyl	908	2990000	0.000729	0.643
920-35-4	3-fluoro-2-methyl-1-propene	473.42	3906000	0.0002595	0.237
92013-11-1	2-propyl-1H-indene	726	2770000	0.000529	0.441
92089-78-6	2-fluoro-3,3-dimethylbutane	517.4	3046000	0.0003725	0.253
921-04-0	dimethyl-sec-butylamine	542.32	3273000	0.0004035	0.361
921-47-1	2,3,4-trimethylhexane	594.5	2523000	0.000494	0.353
922-17-8	3,4-hexanediol	652.71	3936000	0.0003975	1.179
922-28-1	3,4-dimethylheptane	591.9	2462000	0.000503	0.379
922-59-8	3-methyl-1-pentyne	512.82	3727000	0.0003275	0.226
922-61-2	3-methyl-2-pentene	506.59	3205000	0.0003523	0.25
922-62-3	cis-3-methyl-2-pentene	515	3290000	0.000343	0.259
922-63-4	2-ethylacrolein	570	4100000	0.0002715	
923-26-2	1,2-propanediol 1-methacrylate	663	3140000	0.000446	0.754
923-28-4	2-methyl-3-octanone	629.65	2467000	0.0005338	0.541
924-50-5	methyl 3-methyl-2-butenoate	569	3250000	0.000376	0.434
925-60-0	propyl acrylate	569	3250000	0.000376	0.432
925-78-0	3-nonanone	629.65	2467000	0.0005338	0.541
926-02-3	tert-butyl vinyl ether	536	3120000	0.000364	0.38
926-41-0	2,2-dimethylpropyl acetate	577	2720000	0.000448	0.403
926-54-5	2-methyl-1,trans-3-pentadiene	535.2	3481000	0.0003335	0.241
926-55-6	2-methyl-1-penteN-3-yne	525	4000000	0.0002843	
926-56-7	4-methyl-1,3-pentadiene	535.66	3481000	0.0003335	0.241
926-57-8	1,3-dichloro-2-butene, cis and trans	640	3798000	0.000332	0.302
926-63-6	dimethyl-propylamine	528	3350000	0.000345	0.175
926-65-8	isopropyl vinyl ether	505.58	3597000	0.0003135	0.323
926-82-9	3,5-dimethylheptane	583.2	2401000	0.00051	0.385
927-49-1	6-undecanone	678.01	2046000	0.0006575	0.653
927-54-8	5-chloro-1-hexene	583.61	3160000	0.0004005	0.341
927-62-8	dimethylbutylamine	538	2930000	0.000418	0.34
927-73-1	4-chloro-1-butene	535.14	3921000	0.0002895	0.262
92737-91-2	3-methyl-4-heptanol, (R*,S*)-(±)	600.92	2849000	0.000488	0.733
928-40-5	1,5-hexanediol	660.36	3897000	0.0004035	1.214
928-49-4	3-hexyne	544	3530000	0.000331	0.218
928-50-7	5-chloro-1-pentene	566.62	3489000	0.0003455	0.307
928-55-2	ethyl propenyl ether	505.58	3597000	0.0003135	0.323
928-68-7	6-methyl-2-heptanone	624	2640000	0.000469	0.528
928-80-3	3-decanone	656.59	2236000	0.0006015	0.612
928-92-7	trans-4-hexeN-1-ol	587	3900000	0.0003038	
928-94-9	cis-2-hexeN-1-ol	587	3900000	0.0003038	
928-95-0	trans-2-hexeN-1-ol	587	3900000	0.0003038	
928-96-1	cis-3-hexeN-1-ol	587	3900000	0.0003038	
928-97-2	trans-3-hexeN-1-ol	587	3900000	0.0003038	
929-06-6	2-aminoethoxyethanol	699	4360000	0.00033	0.969
929-61-3	1-ethoxy-octane	622	2090000	0.000593	0.601
929-62-4	octyl vinyl ether	636	2500000	0.0005282	
929-77-1	methyl docosanoate	798	1060000	0.0012108	
929-98-6	10-thianonadecane	810.53	1166000	0.0010975	0.787
93-22-1	2-pentylnaphthalene	797.48	2274000	0.0006895	0.575
93-37-8	2,7-dimethylquinoline	774.45	3353000	0.0005145	0.497
93-53-8	α-methylbenzeneacetaldehyde	682	3300000	0.000424	0.459
93-54-9	α-ethylbenzenemethanol	677	3490000	0.00044	0.746
93-58-3	methyl benzoate	693	3590000	0.000436	0.421
93-89-0	ethyl benzoate	698	3180000	0.000489	0.477
930-18-7	1,cis-2-dimethylcyclopropane	485.69	4006000	0.0002815	0.215
930-27-8	3-methylfuran	528.6	4843000	0.0002505	0.289
930-87-0	1,2,5-trimethyl-1H-pyrrole	650	4050000	0.0003503	
930-89-2	1-methyl-cis2-ethylcyclopentane	597.34	2957000	0.0004235	0.29
930-90-5	1-methyl-trans-2-ethylcyclopentane	587.14	2957000	0.0004235	0.29
931-10-2	trans-2-methylcyclohexylamine	622	3490000	0.000393	0.386
931-88-4	cyclooctene	632	3680000	0.000381	0.28
932-01-4	4,4-dimethylcyclohexanol	645	3590000	0.0004482	
932-39-8	1,cis-2-diethylcyclopentane	622.31	2671000	0.0004795	0.334
932-40-1	1,trans-2-diethylcyclopentane	613.51	2671000	0.0004795	0.334
932-43-4	1-methyl-cis2-propylcyclopentane	620.88	2671000	0.0004795	0.334
932-44-5	1-methyl-trans-2-propylcyclopentane	611.82	2671000	0.0004795	0.334
933-12-0	3,5,5-trimethylcyclohexene	620	2860000	0.0004518	
933-36-8	2,2,5-trimethylcyclohexanone	690	2950000	0.0004746	
933-48-2	cis-3,3,5-trimethylcyclohexanol	655	3390000	0.0004788	
933-98-2	3-ethyl-o-xylene	680	2880000	0.000507	0.362
934-74-7	5-ethyl-m-xylene	655	2750000	0.000482	0.417
934-80-5	4-ethyl-o-xylene	667	2880000	0.00049	0.411
935-28-4	2,6-diethylpyridine	673	3000000	0.0004694	
936-89-0	2,4-diethylphenol	714.21	3376000	0.0004215	0.541
937-05-3	cis-4-(1,1-dimethylethyl)cyclohexanol	665	3090000	0.0005298	
937-33-7	N-tert-butylaniline	690	2985000	0.0005255	0.69
93716-28-0	3-ethyltetrahydrofuran	590.7	3796000	0.0003335	0.308
939-27-5	2-ethylnaphthalene	771	3170000	0.00052	0.421
93921-42-7	trans-2,4-dimethylcyclohexanone, (2S)	670	3250000	0.0004217	
94-04-2	vinyl 2-ethylhexanoate	650	2350000	0.0005402	
94-36-0	benzoyl peroxide	884	2570000	0.000718	0.914
94-60-0	dimethyl cyclohexane-1,4-dicarboxylate; (cis+trans)	736	2490000	0.000569	0.641
94-65-5	2-propylcyclohexanone	690	2950000	0.0004746	
94-66-6	2-allylcyclohexanone	690	2950000	0.0004785	
94-68-8	N-ethyl-2-methylaniline	705.58	3284000	0.000482	0.413
94-96-2	2-ethyl-1,3-hexanediol	692.04	3100000	0.000517	1.28
94-99-5	2,4-dichlorobenzyl chloride	737	3340000	0.000447	0.26
941-60-6	2,3-dihydro-1,1,4,6-tetramethyl-1H-indene	749.21	2513000	0.0006045	0.468
94434-64-7	14-methyloctadecanoic acid	810	1300000	0.00108	1.07
948-32-3	1,2,4-triisopropylbenzene	741	1895000	0.00079	0.638
948-97-0	2,3-diphenyl-1-propene	796.49	2660000	0.0006405	0.465
95-13-6	indene	687	3820000	0.000368	0.335
95-15-8	benzothiophene	754	4140000	0.000349	0.296
95-46-5	o-bromotoluene	699	4370000	0.000379	0.318
95-47-6	o-xylene	630.3	3732000	0.00037	0.31
95-48-7	o-cresol	697.55	5006000	0.000282	0.434
95-49-8	o-chlorotoluene	656	3910000	0.000354	0.304
95-50-1	o-dichlorobenzene	705	4070000	0.000351	0.219
95-51-2	o-chloroaniline	722	4590000	0.000364	0.421
95-52-3	o-fluorotoluene	590.48	3815000	0.0003375	0.311
95-53-4	o-toluidine	716.5	4700000	0.0003476	0.384
95-54-5	o-phenylenediamine	781	5180000	0.000315	0.539
95-57-8	o-chlorophenol	675	5000000	0.000325	0.437
95-63-6	1,2,4-trimethylbenzene	649.1	3230000	0.00043	0.379
95-64-7	3,4-dimethylaniline	695.58	3684000	0.000432	0.433
95-65-8	3,4-xylenol	729.95	5000000	0.00035	0.576
95-68-1	2,4-dimethylaniline	695.58	3684000	0.000432	0.433
95-71-6	1,4-dihydroxy-2-methylbenzene	828.51	6132000	0.0001875	0.565
95-73-8	2,4-dichlorotoluene	705	3590000	0.000404	0.359
95-75-0	3,4-dichlorotoluene	710	3620000	0.000404	0.343
95-76-1	3,4-dichloroaniline	800	4110000	0.000409	0.468
95-78-3	2,5-dimethylaniline	695.58	3684000	0.000432	0.433
95-80-7	m-toluenediamine	804	4380000	0.000376	0.579
95-87-4	2,5-xylenol	707.05	4900000	0.00035	0.564
95-92-1	diethyl oxalate	618	3090000	0.0004522	0.808
95-93-2	1,2,4,5-tetramethylbenzene	676	2900000	0.000482	0.422
95-94-3	1,2,4,5-tetrachlorobenzene	759.69	3647000	0.0004595	0.437
96-05-9	allyl methacrylate	600	3020000	0.000415	0.388
96-11-7	1,2,3-tribromopropane	743.76	6000000	0.0003835	0.52
96-14-0	3-methylpentane	504.43	3124000	0.0003664	0.274
96-15-1	2-methylbutylamine	542.6	3620000	0.000341	0.416
96-17-3	2-methylbutanal	543.73	3829000	0.0003265	0.388
96-18-4	1,2,3-trichloropropane	652	3870000	0.000334	0.306
96-20-8	2-aminobutaN-1-ol	571.82	4140000	0.0003	0.711
96-22-0	diethyl ketone	560.9	3740000	0.000336	0.345
96-23-1	1,3-dichloro-2-propanol	633	4500000	0.000308	0.7
96-24-2	3-chloro-1,2-propanediol	648	5250000	0.000283	1.219
96-33-3	methyl acrylate	536	4250000	0.00027	0.348
96-34-4	methyl chloroacetate	600	4500000	0.00027	0.434
96-37-7	methylcyclopentane	532.79	3785000	0.0003189	0.23
96-47-9	2-methyltetrahydrofuran	537	3760000	0.000267	0.3
96-48-0	γ-butyrolactone	739	5940000	0.000265	0.369
96-49-1	ethylene carbonate	806	6770000	0.000193	0.442
96-54-8	N-methylpyrrole	610	4770000	0.000283	0.213
96-70-8	2-tert-butyl-4-ethylphenol	755.67	2747000	0.0005987	0.59
96-76-4	2,4-di-tert-butylphenol	765	2280000	0.000704	0.631
96-80-0	N,N-diisopropylethanolamine	741	3100000	0.000512	
96034-00-3	bis(2-methylbutyl) sulfide	701.03	2141000	0.0006495	0.551
96244-13-2	1,2,6-trimethylcyclohexanol	655	3390000	0.0004788	
97-00-7	1-chloro-2,4-dinitrobenzene	813.77	3490000	0.000478	0.732
97-61-0	2-methylpentanoic acid	661	3380000	0.000389	0.652
97-62-1	ethyl isobutanoate	553.15	3040000	0.00041	0.426
97-63-2	ethyl methacrylate	577	3250000	0.000375	0.344
97-64-3	ethyl lactate	588	3860000	0.000354	0.793
97-65-4	itaconic acid	821	4240000	0.00034	0.925
97-84-7	N,N,N',N'-tetramethyl-1,3-butanediamine	715	3150000	0.0005253	
97-85-8	2-methylpropyl isobutanoate	602	2610000	0.000494	0.403
97-86-9	isobutyl methacrylate	612	2670000	0.000493	0.421
97-87-0	butyl isobutyrate	602	2610000	0.000494	0.395
97-88-1	butyl methacrylate	619	2630000	0.000481	0.447
97-89-2	citronellyl isobutyrate	738	1800000	0.0007738	
97-93-8	triethyl aluminum	678.15	8930000	0.00023	0.842
97-95-0	2-ethyl-1-butanol	580	3400000	0.00038	0.714
97-96-1	2-ethylbutanal	568.76	3412000	0.0003825	0.433
97-99-4	tetrahydrofurfuryl alcohol	639	4660000	0.00029	0.704
97961-66-5	trans-2-methyl-2-hexenoic acid	716	2900000	0.0004518	
98-00-0	furfuryl alcohol	632	5350000	0.000263	0.734
98-01-1	furfural	670.15	5660000	0.000252	0.368
98-06-6	tert-butylbenzene	660	2970000	0.000492	0.267
98-07-7	benzotrichloride	737	3340000	0.000447	0.26
98-08-8	benzotrifluoride	559.9	3210000	0.000356	0.3
98-11-3	benzenesulfonic acid			0.000386	
98-13-5	trichlorophenylsilane	688	2960000	0.000499	0.396
98-19-1	1-tert-butyl-3,5-dimethylbenzene	697.15	2361000	0.000602	0.437
98-27-1	4-tert-butyl-2-methylphenol	751	2980000	0.000546	0.569
98-29-3	p-tert-butylcatechol	776	3770000	0.000511	0.734
98-46-4	3-nitrobenzotrifluoride	667	2800000	0.000441	0.536
98-51-1	1-methyl-4-tert-butylbenzene	676.56	2660000	0.0005325	0.351
98-52-2	4-tert-butylcyclohexanol; (cis+trans)	665	3090000	0.0005298	
98-53-3	4-tert-butylcyclohexanone	710	2750000	0.0005195	
98-54-4	4-tert-butylphenol	734	3340000	0.000493	0.509
98-55-5	a-terpineol	675	2950000	0.000507	0.699
98-56-6	p-chlorobenzotrifluoride	601	3010000	0.000399	0.372
98-66-8	4-chlorobenzenesulfonic acid			0.000429	
98-82-8	cumene	631	3209000	0.000434	0.327
98-83-9	α-methylstyrene	654	3360000	0.000399	0.323
98-85-1	1-phenylethanol	668	3990000	0.000387	0.706
98-86-2	acetophenone	709.6	4010000	0.000386	0.383
98-87-3	benzyl dichloride	731	3650000	0.000404	0.326
98-88-4	benzoyl chloride	697	4060000	0.000367	0.416
98-94-2	cyclohexyldimethylamine	642	3100000	0.0004487	
98-95-3	nitrobenzene	719	4400000	0.000349	0.449
98070-91-8	2,2,3-trichloro-3-methylbutane	635.09	3121000	0.0004515	0.345
98790-22-8	cis-4-propylcyclohexanol	655	3390000	0.0004788	
98924-04-0	disiloxane, trichlorotrifluoro	508.78	2677000	0.000433	
98930-89-3	2-methyl-3-tridecanol	736.2	1715000	0.0008125	0.686
98991-54-9	3-hepteN-2-ol	601	3500000	0.000341	
99-08-1	m-nitrotoluene	734	3800000	0.000441	0.492
99-09-2	m-nitroaniline	815	4420000	0.000406	0.73
99-35-4	1,3,5-trinitrobenzene	846	3390000	0.000479	0.862
99-54-7	1,2-dichloro-4-nitrobenzene	758	3600000	0.000436	0.539
99-62-7	m-diisopropylbenzene	684	2450000	0.0006	0.359
99-63-8	isophthaloyl chloride	768	3330000	0.000471	0.646
99-65-0	m-dinitrobenzene	808	3850000	0.000434	0.667
99-66-1	2-propylpentanoic acid	692	2690000	0.000494	0.779
99-71-8	4-sec-butylphenol	740.54	3468000	0.0004155	0.51
99-82-1	1-methyl-4-isopropylcyclohexane	667	2570000	0.000534	0.274
99-83-2	α-phellandrene	649	2820000	0.0005	0.381
99-85-4	γ-terpinene	661	2800000	0.000489	0.376
99-86-5	α-terpinene	649	2800000	0.000489	0.372
99-87-6	p-cymene	652	2800000	0.000497	0.374
99-88-7	4-isopropylaniline	705.58	3284000	0.000482	0.413
99-89-8	4-isopropylphenol	736.3	3897000	0.0003595	0.464
99-93-4	1-(4-hydroxyphenyl)ethanone	860	4450000	0.000394	0.641
99-94-5	p-toluic acid	773	3860000	0.000397	0.661
99-97-8	4-methyl-N,N-dimethylaniline	705.58	3284000	0.000482	0.413
99-99-0	p-nitrotoluene	743	3207000	0.000441	0.425
992-94-9	methyl silane	352.5	4840000	0.000205	0.139
99210-90-9	(R)-(-)-2-methyl-2,4-pentanediol	649.93	3942000	0.0003969	1.16
993-00-0	methyl chlorosilane	442	4170000	0.000246	0.225
993-07-7	trimethyl silane	432	3190000	0.000311	0.175
994-05-8	methyl tert-pentyl ether	534	3040000	0.000382	0.298
994-25-2	3-chloro-3-ethylpentane	621.08	2693000	0.0004765	0.418
996-35-0	dimethylisopropylamine	511.91	3664000	0.0003475	0.317
99706-68-0	1,12-tridecanediol	755.8	1930000	0.000797	1.313
998-35-6	5-propylnonane	633.2	1792000	0.0007015	0.548
998-65-2	5-ethyl-1-heptanol	625.91	2546000	0.0005525	0.846
998-76-5	1,2-diiodopentane	744.5	3326000	0.0004855	0.332
998-93-6	4-bromoheptane	651	3080000	0.000447	0.444
998-95-8	4-chloroheptane	621.08	2693000	0.0004765	0.418
99814-65-0	1-pentadeceN-3-ol	713	1500000	0.0008503	
999-21-3	diallyl maleate	693	2330000	0.000606	0.789
999-52-0	3-chloroheptane	621.08	2693000	0.0004765	0.418
999-78-0	4,4-dimethyl-2-pentyne	552.81	3416000	0.0003785	0.191
999-97-3	hexamethyldisilazane	544	1920000	0.000613	0.51