CASRN	Chemical	T	Permittivity	A	B	C	D	Tmin	Tmax
99-09-2	3-Nitroaniline	398	35.6	203.52	-0.66582	0.0006131		398	468
99-65-0	1,3-Dinitrobenzene	365.2	22.9	104.06	-0.34133	0.00032609		365	413
99-75-2	Methyl 4-methylbenzoate	306.2	4.3						
99-85-4	-Terpinene	298.2	2.2738						
99-86-5	-Terpinene	298.2	2.4526						
99-87-6	1-Isopropyl-4-methylbenzene	298.2	2.2322	2.5266	-0.00025121	-0.0000024867		277	333
99-97-8	4-Methyl-N,N-dimethylaniline	293.2	3.9						
99-99-0	4-Nitrotoluene	331.2	22.2						
994-49-0	Hexaethyldisiloxane	298.2	2.259	3.6559	-0.0072406	0.0000085714		298	333
998-93-6	4-Bromoheptane	295.2	6.81						
998-95-8	4-Chloroheptane	295.2	6.54						
999-52-0	3-Chloroheptane	295.2	6.7						
999-97-3	Hexamethyldisilazane	294.2	2.273	2.3358	0.0016127	-0.0000062078		294	333