CAS	Chemical	Tm	Tc	Pc	A	B	C	D
75-04-7	Ethyl amine	192.15	456.15	5620000	-7.14146	1.24486	-2.55143	-3.09059
107-10-8	Propyl amine	190.15	496.95	4740000	-6.32807	-0.41527	-1.86755	-1.82733
109-73-9	n-butyl amine	224.05	531.95	4200000	-7.88889	2.6777	-4.27421	-1.85122
124-40-3	Dimethyl amine	180.85	437.25	5340000	-8.48833	4.67224	-6.24955	-1.96675
75-50-3	Trimethyl amine	156.05	433.25	4102000	-7.30365	1.94801	-1.34682	-5.07582
109-89-7	Diethyl amine	223.25	496.65	3710000	-7.362	1.77888	-3.69788	0.28823
121-44-8	Triethyl amine	158.35	535.15	3040000	-7.73549	2.3399	-3.77932	-0.63259
110-89-4	Piperidine	262.55	594	4651000	-6.79875	1.00957	-2.60941	-0.67208
110-86-1	Pyridine	231.45	620	5630000	-7.07868	1.45189	-2.11714	-3.20359
62-53-3	Aniline	267.15	699.05	5310000	-7.86006	1.96206	-3.65571	-2.00622
100-61-8	N-Methyl aniline	216.05	701.5	5200000	-8.99983	2.75304	-2.46251	-3.7898
121-69-7	N,N-dimethyl aniline	275.65	687.2	3630000	-6.91926	-0.79562	-1.01346	-1.30692
91-66-7	N,N-diethyl aniline	235.05	702	2850000	-7.13341	0.21353	-3.88149	-0.98901
100-63-0	Phenylhydrazine	292.45	761	4910000	-10.65944	5.59074	-3.56952	-8.23026
122-39-4	Diphenyl amine	326.15	817	3180000	-8.75985	2.00629	-3.2395	-3.3251
75-05-8	Acetonitrile	229.25	545.55	4830000	-9.22263	5.68045	-6.67111	4.51306
107-12-0	Propionitrile	180.25	564.4	4180000	-7.82826	1.87534	-1.74704	-3.40003
109-74-0	Butyronitrile	161.25	582.3	3790000	-9.07674	4.63491	-4.96526	-1.94727
100-47-0	Benzonitrile	260.35	699.35	4215000	-8.76503	3.46762	-2.58071	-7.03902
75-12-7	Formamide	275.75	771	7800000	-8.05102	1.89555	-3.34638	-3.18188
75-52-5	Nitromethane	244.55	588.2	6310000	-8.40409	2.9631	-2.55125	-3.12626
98-95-3	Nitrobenzene	278.95	719.05	4400000	-11.4218	9.08136	-8.03968	-2.40144
88-72-2	o-Nitrotoluene	269.85	720.05	3800000	-9.20649	3.2536	-2.90528	-5.87732
99-08-1	m-Nitrotoluene	289.35	734.05	3800000	-9.97904	5.05231	-4.85807	-3.04363
99-99-0	p-Nitrotoluene	324.85	743.05	3207000	-9.1484	4.60236	-6.10485	-0.71761