CAS	Chemical	Tm	Tc	Pc	A	B	C	D
7440-63-3	Xenon	161.25	289.73	5842000	-6.00659	1.37325	-0.77703	-1.22529
7439-90-9	Krypton	115.75	209.48	5525000	-5.98396	1.34334	-0.66521	-1.30012
7440-37-1	Argon	83.75	150.69	4863000	-5.92801	1.21982	-0.53967	-1.52312
7440-01-9	Neon	24.55	44.49	2679000	-5.74238	1.0886	-0.05896	-1.19851
7440-59-7	Helium	1.75	5.2	227000	-4.06856	1.04379	1.11594	0.08835
132259-10-0	Air	63.05	132.53	3786000	-5.35069	-0.21537	0.93623	-3.02641
1333-74-0	Hydrogen	13.85	33.19	1315000	-4.83622	0.942	0.7665	-0.47071
7727-37-9	Nitrogen	63.05	126.19	3396000	-6.12498	1.26499	-0.76765	-1.78173
7782-44-7	Oxygen	54.35	154.6	5046000	-6.05148	1.23506	-0.62883	-1.61288
7704-34-9	Sulfur	388.45	1312.95	18208000	-15.68872	19.60608	-12.56687	1.67046
7782-41-4	Fluorine	53.45	144.41	5240000	-6.27045	1.53939	-1.25605	-1.27235
7782-50-5	Chlorine	172.15	416.96	7991000	-6.43911	1.48278	-1.21184	-2.02926
10097-32-2	Bromine	265.85	584.15	10300000	-6.76024	1.50339	-0.64097	-3.62166
7553-56-2	Iodine	386.85	819.15	11654000	-6.98158	2.33987	-1.4809	-3.73441
7664-39-3	Hydrogen fluoride	189.75	461.15	6480000	-9.73172	5.07747	-2.98832	5.51671
7647-01-0	Hydrogen chloride	158.85	324.65	8310000	-6.63222	1.06066	0.05415	-4.45907
10035-10-6	Hydrogen bromide	186.25	363.15	8552000	-5.92115	0.77533	-1.67956	1.00212
10034-85-2	Hydrogen iodide	222.25	423.85	8310000	-5.92123	0.95693	-1.04474	-1.03336
74-90-8	Hydrogen cyanide	259.85	456.65	5390000	-9.77338	5.29679	-4.36059	1.58018
7732-18-5	Water	273.15	647.1	22064000	-7.86975	1.90561	-2.30891	-2.06472
7783-06-4	Hydrogen sulfide	187.65	373.1	8999000	-6.50342	1.52011	-1.36969	-1.96704
7664-41-7	Ammonia	195.35	405.5	11359000	-7.30274	1.64638	-2.01606	-1.96884
10102-43-9	Nitric oxide	112.15	180.15	6480000	-8.38772	0.85755	-3.11447	-8.98765
10102-44-0	Nitrogen dioxide	261.85	431.15	10132000	-11.33898	2.3762	0.6782	-2.53997
10024-97-2	Nitrous oxide	182.25	309.52	7245000	-6.79599	1.59751	-1.85163	-2.29494
10544-72-6	Dinitrogentetroxide	261.85	431.1	10132000	-11.71738	3.10196	0.59704	-5.33648
460-19-5	Cyanogen	245.25	400.15	5978000	-7.51492	1.94916	-2.3675	-4.23472
7719-12-2	Phosphorus trichloride	181.15	563.15	5670000	-8.83133	5.61883	-4.80318	-1.25347
506-77-4	Cyanogen chloride	266.65	449.05	5990000	-7.49333	1.78753	-4.04253	8.50574
7440-21-3	Silane	88.45	269.75	4840000	-7.30552	2.7106	-0.09783	-4.71464
10026-04-7	Tetrachlorosilane	204.35	507.05	3590000	-6.60174	0.34409	-1.09066	-3.1505
630-08-0	Carbon monoxide	68.15	132.86	3498000	-6.19574	1.32502	-0.95226	-1.98513
124-38-9	Carbon dioxide	216.55	304.13	7377000	-7.02916	1.53937	-2.2833	-2.34853
504-64-3	Carbon suboxide	160.95	427.58	6944000	-13.34201	11.51312	-6.91741	-0.29406
463-58-1	Carbonyl sulfide	134.25	378.77	6369000	-6.51272	1.55373	-1.33074	-2.08761
75-44-5	Phosgene	145.25	455.05	5674000	-6.82435	0.89402	-0.50281	-4.67598
75-15-0	Carbon disulfide	161.55	552.05	7900000	-6.58802	1.03676	0.15875	-3.44094
7446-09-5	Sulfur dioxide	199.95	430.64	7876000	-7.27858	1.72871	-2.37473	-2.70464
7446-11-9	Sulfur trioxide	289.95	490.85	8210000	-8.74717	6.32513	-13.93665	-9.67972
7791-25-5	Sulfuryl chloride	219.05	545.05	4610000	-6.32835	0.89929	-2.88437	-1.2433
2551-62-4	Sulfur hexafluoride	222.35	318.88	3766000	-7.08034	1.65103	-1.96365	-0.2506
74-93-1	Methyl mercaptan	150.15	469.95	7230000	-8.04229	4.64898	-4.38751	-1.03684
75-08-1	Ethyl mercaptan	125.25	499.15	5490000	-6.854	1.41434	-1.74027	-2.40242
75-18-3	Dimethyl sulfide	175.15	503	5530000	-7.20168	1.9908	-1.67979	-3.99499
352-93-2	Diethyl sulfide	169.25	557.15	3960000	-6.90446	0.4832	-1.77018	-0.12336
110-02-1	Thiophene	234.85	579.35	5690000	-7.01021	1.63774	-1.6672	-4.21813
593-53-3	Fluoromethane (R41)	131.25	317.28	5906000	-7.21927	1.95643	-1.73271	-2.07627
75-10-5	Difluoromethane (R32)	137.05	351.26	5783000	-7.47027	1.75595	-2.01429	-2.62147
75-46-7	Trifluoromethane (R23)	117.95	299.75	4869000	-7.38216	1.96234	-2.68392	-1.43178
75-73-0	Tetrafluoromethane (R14)	89.45	227.55	3740000	-6.92188	1.54525	-1.41276	-2.87791
74-87-3	Methyl chloride	175.35	416.25	6680000	-6.71862	1.27727	-0.96338	-3.14698
75-09-2	Methylene chloride	178.05	510.05	6080000	-7.57368	3.17104	-3.53296	-2.27696
67-66-3	Chloroform	209.65	536.45	5554000	-7.32485	1.69599	-0.93627	-5.8959
56-23-5	Carbon tetrachloride	250.25	556.35	4560000	-7.11728	1.96174	-2.059	-3.26771
74-83-9	Bromomethane	179.55	467.05	8000000	-7.6538	2.84555	-1.71564	-2.54232
74-95-3	Dibromomethane	220.65	611.05	7170000	-7.25658	1.92921	-1.61527	-4.04404
75-25-2	Tribromomethane	281.35	696.05	6090000	-7.16326	2.92794	-3.91279	-1.16341
558-13-4	Tetrabromomethane	365.15	724.8	9631000	-13.4848	9.03531	1.84773	-22.2683
75-45-6	Chlorodifluoromethane (R22)	115.75	369.28	4988000	-7.0921	1.61905	-2.01221	-2.73123
75-43-4	Dichlorofluoromethane (R21)	138.15	451.55	5184000	-6.95944	1.53177	-1.97969	-3.25683
75-72-9	Chlorotrifluoromethane (R13)	92.15	302.05	3870000	-6.82801	1.52677	-1.75147	-2.23841
75-71-8	Dichlorodifluoromethane (R12)	115.15	385.12	4136000	-6.92085	1.62615	-1.73939	-2.58282
75-69-4	Trichlorofluoromethane (R11)	162.05	471.06	4394000	-6.91946	1.52457	-1.66128	-2.8532
353-36-6	Ethyl fluoride (R161)	129.85	375.3	5028000	-7.07032	1.42577	-1.49199	-1.92623
75-00-3	Ethyl chloride	136.75	460.35	5270000	-7.36967	2.69543	-3.0279	-1.39375
74-96-4	Ethyl bromide	154.55	503.75	6230000	-9.71666	7.74488	-7.76676	3.99427
75-34-3	1,1-Dichloroethane	176.15	523.05	5070000	-6.63204	0.36053	-1.04822	-2.87286
107-06-2	1,2-Dichloroethane	237.45	561.6	5370000	-8.2685	3.49184	-3.19752	-2.97053
106-93-4	1,2-Dibromoethane	282.95	650.2	5477000	-7.96068	4.07852	-4.74206	-0.8841
420-46-2	1,1,1-Trifluoroethane (R143a)	161.75	345.86	3762000	-7.35995	1.71203	-2.01879	-2.98413
71-55-6	1,1,1-Trichloroethane	243.15	545.05	4300000	-7.21356	1.90482	-2.08892	-3.31006
79-34-5	1,1,2,2-Tetrachloroethane	229.25	645.05	4090000	-5.60385	-1.82148	-0.70234	-1.88475
76-01-7	Pentachloroethane	244.15	646	3480000	-7.59524	1.63691	-2.82337	-2.34305
67-72-1	Hexachloroethane	459.95	695.05	3340000	-6.84574	1.14406	-2.27578	-7.15228
76-12-0	1,1,2,2-Tetrachlorodifluoroethane	298.05	551.05	3434000	-7.71309	2.64672	-3.98878	-1.66517
76-13-1	1,1,2-trichlorotrifluoroethane	236.85	487.21	3392000	-7.24399	1.63003	-2.12928	-3.49922
76-14-2	1,2-Dichlorotetrafluoroethane	180.65	418.85	3260000	-7.64719	2.95529	-4.23671	0.15959
540-54-5	1-Chloropropane	150.25	503.15	4580000	-7.23105	1.89946	-2.29641	-2.86891
109-69-3	1-Chlorobutane	150.05	542	3680000	-6.77199	0.79529	-1.25773	-5.53709
543-59-9	1-Chloropentane	174.15	568.05	3350000	-9.45097	5.86945	-5.57003	-2.09598
79-38-9	Chlorotrifluoroethene	115.05	379.15	4053000	-8.22217	4.87114	-7.47925	13.3107
75-01-4	Vinyl chloride	119.25	432.05	5670000	-6.32153	1.11198	-1.35813	-3.25332
75-35-4	1,1-Dichloroethene	150.55	482.05	5190000	-10.494	9.03819	-7.79814	-1.10724
79-01-6	Trichloroethene	188.25	571.05	4910000	-6.86463	1.754	-3.57287	0.95588
127-18-4	Tetrachloroethene	250.75	620.05	4490000	-6.50488	0.75823	-2.53992	-0.58809
462-06-6	Fluorobenzene	230.85	560.05	4551000	-7.42663	2.30457	-3.23481	-1.05236
108-90-7	Chlorobenzene	227.85	632.35	4519000	-7.41321	2.18452	-2.95675	-1.66197
108-86-1	Bromobenzene	242.35	670.2	4519000	-8.10313	3.78791	-4.14347	-2.11742
591-50-4	Iodobenzene	241.75	721.2	4519000	-7.47909	2.53825	-3.5432	-1.50458
108-41-8	m-Chlorotoluene	225.15	660.75	3954000	-7.9036	2.90903	-4.76707	3.62554
100-44-7	Benzyl chloride	234.15	686.05	3910000	-6.24204	-0.59859	-2.50951	0.213
74-82-8	Methane	90.65	190.56	4599000	-6.02388	1.26813	-0.56948	-1.37648
74-84-0	Ethane	90.25	305.32	4872000	-6.46252	1.3576	-1.04922	-2.03789
74-98-6	Propane	85.45	369.82	4248000	-6.7148	1.38388	-1.30695	-2.56827
106-97-8	n-Butane	134.75	425.13	3796000	-7.08562	1.79335	-2.00003	-2.31975
109-66-0	n-Pentane	143.35	469.66	3369000	-7.36401	1.94358	-2.47191	-2.34757
110-54-3	n-Hexane	177.75	507.79	3042000	-7.61075	2.00527	-2.74158	-2.82824
142-82-5	n-Heptane	182.55	541.23	2774000	-7.75469	1.84795	-2.80333	-3.62418
111-65-9	n-Octane	216.25	569.57	2507000	-8.01133	1.98859	-3.26507	-3.99439
111-84-2	n-Nonane	219.65	594.55	2282000	-8.45145	2.5785	-4.17533	-3.66755
124-18-5	n-Decane	243.55	617.7	2101000	-8.62717	2.5589	-4.50221	-3.6342
1120-21-4	n-Undecane	247.55	639.05	1950000	-8.73044	2.35716	-4.52576	-4.46648
112-40-3	n-Dodecane	263.65	658.1	1818000	-8.97902	2.4053	-4.55315	-5.99492
629-50-5	n-Tridecane	267.85	675.05	1680000	-8.71245	1.11086	-3.15308	-8.81599
629-59-4	n-Tetradecane	279.15	693.05	1570000	-8.99672	1.98553	-5.38986	-4.09226
629-62-9	n-Pentadecane	283.15	708.05	1480000	-8.86498	0.89612	-3.70098	-8.72916
544-76-3	n-Hexadecane	291.45	723.05	1400000	-8.96067	0.85195	-4.0408	-8.42218
629-78-7	n-Heptadecane	295.15	736.05	1340000	-9.43782	1.65057	-5.70751	-4.71679
593-45-3	n-Octadecane	301.45	747.05	1270000	-9.87775	2.42883	-7.03772	-3.36978
629-92-5	n-Nonadecane	305.15	758.05	1210000	-9.91003	1.64273	-5.20678	-10.43208
112-95-8	n-Eicosane	309.65	769.63	1128000	-8.99815	-1.3023	-1.45511	-16.74038
75-28-5	Isobutane	113.55	407.81	3629000	-6.90675	1.5774	-1.8016	-2.42893
78-78-4	2-Methyl butane	113.25	460.35	3378000	-7.18224	1.72845	-2.05353	-2.71274
463-82-1	2,2-Dimethyl propane	256.55	433.74	3196000	-6.98355	1.6785	-2.0847	-2.428
107-83-5	2-Methyl pentane	119.55	497.7	3043000	-7.49311	1.93828	-2.57247	-2.85203
96-14-0	3-Methyl pentane	110.25	504.65	3120000	-7.76049	2.81104	-3.61863	-1.53175
75-83-2	2,2-Dimethyl butane	174.25	489	3100000	-6.84403	0.74239	-0.92872	-4.01577
79-29-8	2,3-Dimethyl butane	145.15	500	3151000	-7.23412	1.74312	-2.49507	-1.81829
74-85-1	Ethylene	104.05	282.35	5042000	-6.41327	1.45469	-1.24183	-1.99446
115-07-1	Propylene	187.75	365.57	4665000	-6.66599	1.4343	-1.39324	-2.46883
106-98-9	1-Butene	87.75	419.29	4006000	-7.07897	1.87819	-2.02256	-2.64845
109-67-1	1-Pentene	108.05	464.75	3560000	-7.23957	1.68881	-1.87158	-3.19856
592-41-6	1-Hexene	133.25	504.05	3140000	-7.47396	1.8545	-2.38903	-3.50639
592-76-7	1-Heptene	154.25	537.4	2920000	-8.62839	3.98397	-4.58652	-2.45443
111-66-0	1-Octene	171.35	567.05	2680000	-7.9375	1.47392	-1.85509	-5.72867
463-49-0	Propadiene	136.75	393.15	5090000	-8.00232	4.45942	-2.87994	-5.85178
590-19-2	1,2-Butadiene	136.85	452	4360000	-6.07102	0.12159	-1.55692	-0.53215
106-99-0	1,3-Butadiene	164.25	425.15	4277000	-6.79824	1.08553	-0.96279	-3.84778
591-95-7	1,2-Pentadiene	135.75	500.05	3800000	-5.94252	0.2669	-2.35857	-1.73048
504-60-9	trans-1,3-Pentadiene	185.75	500.05	3740000	-5.50529	-0.22313	-2.15448	-1.34395
591-93-5	1,4-Pentadiene	124.85	479	3740000	-5.36609	-0.09618	-2.3975	-1.13323
591-96-8	2,3-Pentadiene	147.45	497	3800000	-6.57492	0.8224	-2.46643	-2.03177
74-86-2	Acetylene	192.25	308.35	6139000	-6.99241	1.57338	-1.33202	-5.21884
74-99-7	Propyne	170.35	402.4	5630000	-7.11026	1.86493	-2.56109	-1.65671
503-17-3	2-Butyne	240.85	473.2	4870000	-6.85375	0.83418	-1.42544	-2.91847
107-00-6	1-Butyne	147.35	440	4600000	-7.17126	1.56844	-2.22263	-2.83839
75-19-4	Cyclopropane	145.55	397.95	5495000	-8.18446	5.40338	-5.26106	0.29975
287-23-0	Cyclobutane	182.45	459.9	4980000	-7.11287	1.86338	-1.59855	-2.35844
287-92-3	Cyclopentane	179.25	511.7	4525000	-7.00184	1.6743	-1.95254	-2.43833
96-37-7	Methyl cyclopentane	130.75	532.75	3790000	-7.22687	1.83847	-2.26044	-2.89788
1640-89-7	Ethyl cyclopentane	134.65	569.5	3400000	-7.33383	1.5875	-2.00285	-3.84956
2040-96-2	Propyl cyclopentane	155.75	596	3020000	-7.564	1.41441	-1.85483	-4.86488
2040-95-1	Butyl cyclopentane	165.15	621	2720000	-8.82045	4.56618	-6.39502	0.0491
3741-00-2	Pentyl cyclopentane	190.15	656.2	2467000	-8.34838	4.6092	-8.05957	2.47945
4457-00-5	hexyl cyclopentane	200.15	660.1	2138000	-8.25942	1.53284	-2.79124	-6.47404
110-82-7	Cyclohexane	279.65	553.6	4075000	-7.00979	1.57475	-1.9682	-3.26095
108-87-2	Methyl cyclohexane	146.55	572.15	3471000	-6.9929	1.02989	-1.06613	-4.84894
1678-91-7	Ethyl cyclohexane	161.75	609.15	3040000	-6.62098	0.32843	-1.34736	-4.41951
1678-92-8	Propyl cyclohexane	178.25	639.2	2807000	-6.5891	0.42832	-2.35856	-3.12499
1678-93-9	Butyl cyclohexane	198.35	667	2570000	-6.34269	-0.12784	-2.4878	-3.28017
4292-92-6	Pentyl cyclohexane	200.25	667.85	2204000	-9.46392	5.58832	-7.94937	0.81254
4292-75-5	Hexyl cyclohexane	227.85	693.6	2260000	-9.74155	5.86346	-8.50766	1.30484
142-29-0	Cyclopentene	138.05	507	4800000	-7.05071	1.79116	-2.02594	-2.17803
110-83-8	Cyclohexene	169.65	560.45	4350000	-7.19079	1.97175	-2.26256	-3.04106
71-43-2	Benzene	278.65	562.01	4901000	-7.11451	1.83981	-2.25158	-3.15179
108-88-3	Toluene	178.15	591.75	4126000	-7.50051	2.08939	-2.56368	-2.85042
100-41-4	Ethyl benzene	178.25	617.05	3613000	-7.64476	2.01616	-2.69311	-3.25571
103-65-1	Propyl benzene	173.55	638.35	3196000	-7.90921	2.25623	-3.18277	-3.03789
104-51-8	Butyl benzene	185.25	660.5	2890000	-7.91469	1.51273	-2.1643	-5.64758
538-68-1	Pentyl benzene	198.05	679.9	2604000	-9.80886	6.0729	-7.50612	-1.56859
1077-16-3	Hexyl benzene	211.95	698	2380000	-9.64511	5.1913	-6.86455	-2.47938
95-47-6	o-Xylene	247.85	630.25	3732000	-7.60791	1.79921	-2.42215	-3.36892
108-38-3	m-Xylene	225.25	617.05	3541000	-7.63902	1.65289	-2.19801	-3.94677
106-42-3	p-Xylene	286.45	616.25	3511000	-7.67395	1.81953	-2.39673	-3.44627
526-73-8	1,2,3-Trimethyl benzene	247.75	664.5	3454000	-7.62987	1.23706	-2.24536	-2.65979
95-63-6	1,2,4-Trimethyl benzene	229.25	649.05	3232000	-8.03805	2.10078	-2.99671	-3.00299
108-67-8	1,3,5-Trimethyl benzene	228.35	637.3	3127000	-7.82434	1.27065	-2.1789	-3.60299
488-23-3	1,2,3,4-Tetramethyl benzene	266.85	693	3110000	-9.6142	5.81425	-7.22553	-0.17754
527-53-7	1,2,3,5-Tetramethyl benzene	249.45	679	2970000	-8.71211	3.45458	-5.00258	-1.61174
95-93-2	1,2,4,5-Tetramethyl benzene	352.45	676	2900000	-7.76585	0.9677	-2.26413	-3.93132
700-12-9	Pentamethyl benzene	327.55	719.2	2870000	-8.00728	1.10336	-2.69076	-2.48217
87-85-4	Hexamethyl benzene	438.65	758	2770000	-8.54789	2.39022	-4.64673	-4.09546
100-42-5	Styrene	242.55	636.05	3840000	-8.15126	3.51813	-4.34082	-2.42333
98-82-8	Isopropyl benzene	177.15	631.05	3209000	-7.53496	1.50829	-2.32928	-4.31012
92-52-4	Biphenyl	342.35	789	3850000	-7.75945	1.70606	-2.96632	-3.06189
101-81-5	Diphenyl methane	298.45	760	2710000	-8.53233	2.00873	-2.93179	-6.03029
519-73-3	Triphenyl methane	365.35	865	2200000	-8.84156	2.41421	-5.56532	-2.75668
630-76-2	Tetraphenyl methane	561.25	983	1790000	-9.59635	3.13229	-6.82319	-2.76211
91-20-3	Naphthalene	353.45	748.45	4050000	-7.97682	2.86601	-3.50249	-2.67778
90-12-0	1-Methylnaphthalene	242.65	772	3600000	-6.84372	-0.39471	-0.79459	-3.92723
91-57-6	2-Methylnaphthalene	307.75	761	3500000	-10.50759	8.20742	-8.41116	-1.58015
1127-76-0	1-Ethylnaphthalene	259.25	776	3320000	-9.12884	4.70431	-6.05976	-1.87388
939-27-5	2-Ethylnaphthalene	265.85	771	3170000	-8.42943	2.12066	-1.95832	-6.02831
67-56-1	Methanol	175.45	513.38	8216000	-8.72963	1.4586	-2.78449	-0.70669
64-17-5	Ethanol	159.05	513.9	6148000	-8.33803	0.0872	-3.30575	-0.26001
71-23-8	1-Propanol	146.85	536.75	5175000	-8.60671	2.17353	-8.04678	3.69194
71-36-3	1-Butanol	183.75	563.05	4423000	-8.3312	2.0553	-8.17754	0.19316
71-41-0	1-Pentanol	195.55	586.15	3880000	-8.62225	2.10135	-6.29175	-6.79293
111-27-3	1-Hexanol	228.55	611.35	3510000	-9.17319	4.30846	-10.1189	-0.93221
111-70-6	1-Heptanol	239.05	632.6	3058000	-8.85687	3.21033	-7.48606	-12.12938
111-87-5	1-Octanol	257.55	652.55	2860000	-10.26829	6.70186	-11.65601	-6.37873
67-63-0	Isopropanol	185.25	508.25	4762000	-8.44737	1.17402	-6.97876	0.69248
78-83-1	2-Methyl-1-propanol	165.15	547.75	4300000	-7.8296	0.4451	-5.32308	-10.00835
123-51-3	3-Methyl-1-butanol	155.85	577.25	3930000	-8.27417	1.16334	-5.04768	-11.64372
107-21-1	Ethylene glycol	260.05	719.15	8200000	-7.85575	1.06762	-5.14271	-1.6566
504-63-2	1,3-Propylene glycol	246.35	724.05	9500000	-10.42988	2.74631	-2.20347	-6.30476
56-81-5	Glycerol	291.45	850.05	7500000	-6.94758	-0.33345	-5.98569	-1.33011
108-93-0	Cyclohexanol	296.65	650.05	4260000	-6.96569	0.93439	-5.00403	-10.297
100-51-6	Benzyl alcohol	257.85	720.15	4501000	-7.38172	2.18313	-6.78536	-2.57851
95-48-7	o-Cresol	304.15	697.55	5010000	-8.83275	3.4665	-4.36291	-6.10327
108-39-4	m-Cresol	285.45	705.85	4560000	-8.84466	4.00993	-6.76021	-3.02124
106-44-5	p-Cresol	307.95	704.65	5150000	-11.38986	9.13086	-10.26796	-3.81158
108-95-2	Phenol	314.15	694.25	6130000	-10.48951	7.87328	-9.54201	-0.49292
64-18-6	Formic acid	281.65	588.05	5810000	-7.48216	0.88805	-0.32253	-2.58053
64-19-7	Acetic acid	289.95	591.95	5786000	-9.34304	3.77735	-3.59092	-1.57006
79-09-4	Propionic acid	252.35	600.85	4617000	-9.05245	2.46694	-4.73604	1.29659
107-92-6	Butyric acid	267.85	615.75	4064000	-9.92279	3.73064	-6.94231	-1.65235
109-52-4	Valeric acid	243.75	634.05	3890000	-9.0796	1.91018	-4.75458	-4.7345
142-62-1	Caproic acid	269.35	660.2	3308000	-9.90505	4.66763	-11.56156	2.5912
108-24-7	Acetic anhydride	200.15	606.05	4000000	-8.15436	1.80785	-3.76039	-3.04616
123-62-6	Propionic anhydride	228.05	623	3270000	-6.66964	-2.7067	-1.76623	7.5417
79-11-8	Chloroacetic acid	333.15	686.05	5780000	-10.72534	7.62232	-10.44634	-2.56382
79-43-6	Dichloroacetic acid	286.65	686.05	5170000	-10.3804	6.03907	-7.4278	-7.72727
76-03-9	Trichloroacetic acid	330.15	688.05	4810000	-8.8039	2.91469	-6.75915	-0.26065
463-51-4	Ketene	122.05	370.05	5810000	-5.93228	0.34819	-1.82981	-0.1175
67-64-1	Acetone	178.35	508.1	4692000	-7.67033	1.96469	-2.4438	-2.90162
78-93-3	Methyl ethyl ketone	186.35	535.55	4150000	-7.89149	2.46953	-3.5251	-0.92713
96-22-0	Diethyl ketone	234.15	561	3740000	-7.27265	0.6312	-1.64177	-4.36962
123-19-3	Dipropyl ketone	240.55	602	2920000	-7.98923	1.58266	-2.61251	-4.38408
98-86-2	Acetophenone	292.85	709.5	3840000	-6.96667	-0.37241	-0.80507	-4.88404
119-61-9	Benzophenone	321.45	830.05	3352000	-10.03049	5.92909	-7.69343	-1.20468
115-10-6	Dimethyl ether	131.65	400.3	5341000	-7.33288	2.677	-3.4025	-0.11957
60-29-7	Diethyl ether	156.75	466.63	3651000	-7.55709	2.15613	-3.02766	-2.37858
111-43-3	Dipropyl ether	149.85	530.6	3028000	-8.55629	3.49469	-4.22192	-2.6153
557-17-5	Methyl propyl ether	133.95	476.3	3801000	-8.76101	5.30514	-6.07025	-0.78235
628-32-0	Ethyl propyl ether	145.55	500.2	3370000	-10.68465	8.88906	-8.58949	-2.06505
75-21-8	Ethylene oxide	160.65	469.15	7190000	-6.39656	-0.13545	0.30047	-4.54866
110-00-9	Furane	187.55	490.15	5500000	-7.98347	4.7172	-6.64737	3.77132
123-91-1	1,4-Dioxane	284.95	587.05	5208000	-7.40401	2.12025	-3.88819	1.69876
50-00-0	Formaldehyde	181.15	408.05	6590000	-7.46907	1.2829	-0.50464	-4.29089
75-07-0	Acetaldehyde	150.15	466.05	5550000	-7.48323	1.89754	-1.87991	-2.74165
123-63-7	Paraldehyde	285.85	579.05	3500000	-8.39247	2.6685	-4.68103	-2.64044
98-01-1	Furfural	236.55	670.2	5660000	-7.19466	0.15098	-1.29504	-2.81404
100-52-7	Benzaldehyde	216.05	695.05	4650000	-7.62714	1.75696	-2.27084	-3.9193
90-02-8	Salicylaldehyde	274.85	680	4990000	-10.08822	2.82918	-0.83177	-3.21642
107-31-3	Methyl formate	174.15	487.25	6000000	-7.09661	1.33571	-2.14672	-2.79247
109-94-4	Ethyl formate	193.55	508.45	4740000	-7.17811	1.31054	-2.17904	-4.8515
110-74-7	Propyl formate	180.25	538	4020000	-7.55263	1.95726	-3.16613	-3.81792
79-20-9	Methyl acetate	175.15	506.55	4750000	-8.57584	4.22791	-5.37346	-0.82045
141-78-6	Ethyl acetate	189.65	523.2	3830000	-7.89734	2.16798	-3.5239	-3.10641
109-60-4	Propyl acetate	178.15	549.75	3360000	-7.89781	1.68898	-2.74051	-5.47967
554-12-1	Methyl propionate	185.55	530.6	4004000	-8.30872	3.53745	-5.20774	-1.27089
105-37-3	Ethyl propionate	199.25	546.05	3362000	-8.75519	4.14793	-5.89411	-1.78473
106-36-5	Propyl propionate	197.25	568.6	3060000	-7.79443	0.71065	-2.20915	-2.58752
623-42-7	Methyl butyrate	187.35	554.5	3473000	-8.52321	3.7835	-5.74769	-0.69681
105-54-4	Ethyl butyrate	175.05	571	2950000	-8.18197	2.21896	-3.32406	-2.03342
93-58-3	Methyl benzoate	260.75	693.05	3590000	-9.52872	5.22508	-5.67192	-4.5996
93-89-0	Ethyl benzoate	238.35	698	3180000	-9.49777	3.93518	-3.00984	-10.93022
119-36-8	Methyl salicylate	265.15	709	4090000	-14.30891	11.86128	-2.67256	-30.8563
74-89-5	Methyl amine	179.65	430.05	7460000	-6.93594	0.77016	-2.12846	-3.11687