CASRN	Name	A	B	C	D	Tc	Pc	Tmin	Tmax
64-18-6	methanoic acid 	-7.24917	0.44255	-0.35558	-0.96906	588	5807000	281.45	588
74-82-8	methane 	-6.02242	1.26652	-0.5707	-1.366	190.551	4599200	90.694	190.55
67-56-1	methanol 	-8.63571	1.17982	-2.479	-1.024	512.64	8092000	175.47	512.64
74-86-2	ethyne 	-6.87886	1.30164	-1.22474	-3.59556	308.35	6139000	192.4	308.35
64-19-7	ethanoic acid 	-8.2943	0.97928	-0.21745	-5.72367	592.71	5786000	289.81	592.71
74-84-0	ethane 	-6.475	1.41071	-1.144	-1.859	305.33	4871000	90.352	305.33
64-17-5	ethanol 	-8.68587	1.17831	-4.8762	1.588	513.92	6132000	159.05	513.92
13838-16-9	2-chloro-1,1,2-trifluoroethyl difluoromethyl ether	-8.32915	2.37044	-3.75113	-4.6033	475.03	2980000		475.03
26675-46-7	1-chloro-2,2,2-trifluoroethyl difluoromethyl ether 	-8.08994	2.07729	-3.32	-4.2641	467.8	3046000		467.8
1814-88-6	1,1,1,2,2-pentafluoropropane 	-7.67509	2.38205	-3.6522	0	380.38	3148300	248	326
78-87-5	1,2-dichloropropane 	-7.70557	2.62197	-2.74104	-3.08934	578	4650000	293.67	406.5
67-64-1	propanone 	-7.55098	1.60784	-1.9944	-3.2002	508.1	4702000	178.45	508.1
79-09-4	propanoic acid 	-8.14882	0.7959	-3.1836	-3.81338	604	4530000	252.45	604
616-38-6	dimethylcarbonate 	-8.24279	3.25566	-4.2825	-2.1194	557	4800000	310.56	397.5
74-98-6	propane 	-6.76368	1.55481	-1.5872	-2.024	369.85	4247000	85.47	369.85
71-23-8	1-propanol 	-8.53706	1.96214	-7.6918	2.945	536.78	5168000	146.95	536.78
67-63-0	2-propanol 	-8.73656	2.1624	-8.70785	4.77927	508.3	4763000	185.258	508.3
108-24-7	acetic anhydride 	-8.3513	1.8905	-2.8357	-5.1156	606	4000000	200.15	606
107-92-6	butanoic acid 	-8.42953	1.34333	-5.37332	-2.74438	624	4030000	267.95	624
79-31-2	2-methylpropanoic acid 	-8.53258	1.30605	-5.2242	-2.05813	605	3700000	227.15	605
106-97-8	butane 	-7.01763	1.6777	-1.9739	-2.172	425.25	3792000	134.86	425.25
110-85-0	piperazine 	-8.10664	3.36281	-4.52962	-3.8278	661	5800000	418	460.48
71-36-3	1-butanol 	-8.40615	2.2301	-8.2486	-0.711	563.05	4424000	183.85	563.05
78-83-1	2-methyl-1-propanol 	-8.3146	2.13678	-8.4832	-0.79774	547.78	4304000	165.15	547.78
75-65-0	2-methyl-2-propanol 	-8.47927	2.47845	-9.27918	-2.53992	506.2	3973000	298.97	506.2
78-92-2	2-butanol 	-8.0982	1.64406	-7.49	-5.27355	536.01	4198000	158.45	536.01
60-29-7	diethyl ether 	-7.43301	1.78847	-2.4793	-3.2811	466.74	3650000	156.85	466.74
110-71-4	1,2-dimethoxyethane 	-8.0898	2.53555	-3.4809	-3.65036	537	3960000	305.86	392.29
26171-83-5	1,2-butandiol 	-9.98662	5.09869	-9.38593	-2.85378	680	5210000	372.55	506.4
107-88-0	1,3-Butanediol 	-9.29011	3.03108	-9.27334	-1.05346	676	4020000	364.98	512.05
120-92-3	cyclopentanone 	-7.36589	1.54092	-2.28143	-3.0514	624.5	4600000	221.85	624.5
96-41-3	cyclopentanol 	-7.40984	1.71852	-6.8471	-4.36177	619.5	4900000		619.5
109-52-4	pentanoic acid 	-8.76701	1.5499	-6.19961	-4.21927	643	3580000	239.15	643
503-74-2	3-methylbutanoic acid 	-8.67381	1.62939	-6.51756	-2.08757	629	3400000	243.85	629
109-66-0	pentane 	-7.30698	1.75845	-2.1629	-2.913	469.8	3375000	143.42	469.8
71-41-0	1-pentanol 	-8.98005	3.91624	-9.9081	-2.191	588.15	3909000	195.56	588.15
344-07-0	chloropentafluorobenzene 	-8.10119	1.95485	-2.79778	-4.194	570.81	3237000		570.81
392-56-3	hexafluorobenzene 	-8.04104	1.9351	-2.939	-4.548	516.73	3275000	278.25	516.73
363-72-4	pentafluorobenzene 	-7.86799	1.71659	-2.53582	-4.59937	530.97	3537000		530.97
327-54-8	1,2,4,5-tetrafluorobenzene 	-7.85347	1.9462	-2.8652	-3.80563	543.35	3799000		543.35
71-43-2	benzene 	-7.01433	1.55256	-1.8479	-3.713	562.16	4898000	278.68	562.16
110-83-8	Cyclohexene 	-9.08102	5.75488	-5.17505	-1.0489	560.4	4905000	285.39	356.99
108-94-1	cyclohexanone 	-7.4938	1.63094	-2.12212	-3.91327	653	4000000	242	653
141-79-7	4-methyl-3-penten-2-one 	-8.68118	3.99203	-4.81662	-1.73164	605	4000000	303.67	428.56
108-93-0	cyclohexanol 	-7.12838	1.40189	-5.60756	-9.57158	650	4260000	296.6	650
108-10-1	isobutyl ketone) 	-7.7004	1.69968	-2.80448	-3.81623	574.6	3270000	189.15	574.6
111-34-2	butylvinylether 	-8.04744	2.31158	-2.91499	-4.09565	540.5	3200000	311.89	403.37
142-62-1	hexanoic acid 	-8.8657	1.95079	-7.80315	-2.85006	662	3200000	269.25	662
111-15-9	2-ethoxyethylacetate 	-9.64168	4.58179	-6.25993	-4.12066	610.6	3180000	330	468.7
110-54-3	hexane 	-7.53998	1.83759	-2.5438	-3.163	507.9	3035000	177.83	507.9
111-27-3	1-hexanol 	-9.49034	5.13288	-10.5817	-5.154	610.7	3470000	228.55	610.7
335-57-9	hexadecylfluoroheptane 	-9.18955	3.15138	-5.41934	-4.11174	475	1650000	303.68	389.7
771-56-2	pentafluorotoluene 	-8.08717	1.76131	-2.72838	-4.13797	566.52	3124000		566.52
108-88-3	toluene 	-7.316	1.59425	-1.93165	-3.7222	591.8	4106000	178.18	591.8
100-51-6	benzyl alcohol 	-7.29099	1.17084	-4.7167	-5.53	715	4300000	257.85	715
141-32-2	Butyl-2-propenoate 	-7.59083	1.96932	-3.05837	-4.17604	644	4540000	318.51	419.77
111-14-8	heptanoic acid 	-8.9424	2.20536	-8.82144	-1.971	679	2900000	265.83	679
111-70-6	1-heptanol 	-9.68778	5.35716	-10.1672	-8.01	632.5	3135000	239.15	632.5
98-86-2	MethylPhenylKetone 	-8.9386	4.01161	-4.5941	-2.57768	713	4400000	360.46	520
100-41-4	ethylbenzene 	-7.53139	1.75439	-2.42012	-3.57146	617.2	3600000	178.2	617.2
95-47-6	1,2-dimethylbenzene 	-7.60491	1.75383	-2.27531	-3.73771	630.33	3735000	247.98	630.33
108-38-3	1,3-dimethylbenzene 	-7.67717	1.8024	-2.47745	-3.66068	617.05	3538000	225.3	617.05
106-42-3	1,4-dimethylbenzene 	-7.71694	1.89119	-2.39695	-3.63026	616.23	3516000	286.41	616.23
124-07-2	octanoic acid 	-9.04015	2.16529	-8.66117	-4.69516	695	2640000	289.65	695
111-65-9	octane 	-8.04937	2.03865	-3.312	-3.648	568.95	2490000	216.38	568.95
111-87-5	1-octanol 	-10.01437	5.90629	-10.4026	-9.048	652.5	2860000	257.65	652.5
123-96-6	2-octanol 	-9.37352	4.7376	-8.3382	-11.646	638	2890000	241.55	638
104-76-7	2-ethyl-1-hexanol 	-9.61812	5.17861	-9.1144	-11.004	640.5	2799000	203.15	640.5
111-86-4	n-octanamine	-7.99396	1.40573	-2.98188	-6.60435	641	2617000	434.49	494.5
112-05-0	nonanoic acid 	-9.1009	2.49646	-9.98583	-2.13513	711	2430000	285.55	711
111-84-2	nonane 	-8.32886	2.25707	-3.8257	-3.732	594.9	2290000	219.66	594.9
143-08-8	1-nonanol 	-9.91542	5.1367	-8.8075	-12.497	671.5	2630000	268.15	671.5
91-20-3	naphthalene 	-7.61444	1.91553	-2.5075	-3.23	748.4	4050000	353.43	748.4
334-48-5	decanoic acid 	-9.0706	2.77535	-11.1014	-2.43545	726	2230000	304.55	726
124-18-5	decane 	-8.60643	2.44659	-4.2925	-3.908	617.65	2105000	243.51	617.65
112-30-1	1-decanol 	-9.75478	4.18634	-7.0572	-15.98	689	2410000	280.05	689
996-70-3	octamethylethenetetramine 	-8.33725	2.87447	-4.08037	-3.54204	680	2400000	357.7	485.2
1120-21-4	undecane 	-8.85076	2.60205	-4.7305	-4.081	638.85	1955000	247.571	638.85
112-42-5	1-undecanol 	-9.85733	3.97841	-6.6002	-16.691	705	2240000	288.45	705
102-25-0	1,3,5-triethylbenzene 	-9.35738	3.7883	-5.45184	-2.91351	679	2435000	371.64	534.7
702-79-4	1,3-dimethyltricyclo [3.3.1.13,7]decane 	-8.17338	3.28872	-3.47324	-2.48597	708	3000000	352.17	526.2
112-40-3	dodecane 	-9.08593	2.77846	-5.1985	-4.173	658.65	1830000	263.568	658.65
112-53-8	1-dodecanol 	-9.91901	3.61884	-5.8537	-18.204	720	2080000	296.95	720
629-50-5	tridecane 	-9.32959	2.89925	-5.555	-4.47	676	1710000	267.76	676
112-70-9	1-tridecanol 	-9.99402	3.36986	-5.4865	-18.592	734	1935000	303.75	734
1012-72-2	1,4-di(trimethylmethyl)benzene	-9.28468	3.89231	-5.55138	-3.34144	708	2300000	387.02	559.1
629-59-4	tetradecane 	-9.5447	3.06637	-6.007	-4.53	693	1610000	279.01	693
112-72-1	1-tetradecanol 	-10.13519	3.27661	-5.3447	-18.711	747	1810000	310.65	747
629-62-9	pentadecane 	-9.80239	3.29217	-6.5317	-4.584	708	1515000	283.072	708
629-76-5	1-pentadecanol 	-10.32431	3.32013	-5.4784	-18.263	759	1700000	317.05	759
544-76-3	hexadecane 	-10.03664	3.41426	-6.8627	-4.863	722	1435000	291.308	722
4390-04-9	2,2,4,4,6,8,8-heptamethylnonane 	-8.9087	2.2747	-3.649	-6.66	693	1570000		693
4485-13-6	1-hexadecanol 	-10.54087	3.4726	-6.077	-15.939	770	1610000		770
629-78-7	heptadecane 	-10.236	3.54177	-7.1898	-5	735	1370000	295.134	735
1454-85-9	1-heptadecanol 	-10.73125	3.55515	-6.3591	-15.696	780	1500000	327.05	780
593-45-3	octadecane 	-10.4723	3.69655	-7.5779	-5.109	746	1300000	301.31	746
112-92-5	1-octadecanol 	-10.91637	3.57835	-6.6199	-15.06	790	1440000	331.05	790
629-92-5	nonadecane 	-10.68217	3.98054	-8.303	-4.995	758	1230000	305.04	758
1454-84-8	1-nonadecanol 	-11.22657	4.03454	-7.7867	-11.97	799	1380000	334.85	799
112-95-8	eicosane 	-10.97958	4.25588	-8.9573	-5.043	769	1160000	309.58	769
629-96-9	1-eicosanol 	-11.23154	3.669	-7.0775	-14.321	809	1300000	338.55	809
7783-81-5	uranium hexafluoride 	-7.37599	1.8001	-2.69686	-3.13299	503.35	4531000		503.35
7664-41-7	ammonia 	-7.28322	1.5716	-1.85672	-2.39312	405.5	11353000	195.41	405.5
7727-37-9	nitrogen 	-6.11102	1.2189	-0.69366	-1.89893	126.2	3400000	63.149	126.2