CASRN	Chemical	Tmin	Tmax	a0	a1	a2	a3	a4	a5	a6	a7	I	J	Hf
544-76-3	Hexadecane	200	1000	4	20051000	564	167.891	-67.677	-43250000	98	221	2187.2	43.01	-286600
1560-93-6	2-Methylpentadecane	200	1000	4	3862000	299	142.425	7.45	-39860000	122	128	991.3	31.42	-291300
2882-96-4	3-Methylpentadecane	200	1500	4	1941000	270	96.975	85.385	-178590000	241	36	1183.2	34.36	-288700
36653-82-4	1-Hexadecanol	200	1500	4	4413000	306	127.2	30.023	-59580000	104	131	1045.2	36.38	-432700
2917-26-2	1-Hexadecanethiol	273	1000	4	11522000	437	272.511	-242.121	320470000	217	185	1588.5	42.74	-249100
66271-53-2	2-Hexadecanethiol	273	1000	4	12390000	451	276.348	-273.249	349030000	220	188	1523.3	42.31	
62155-10-6	2-Thiaheptadecane	273	1000	4	2892000	200	159.072	-28.163	-10490000	99	138	-944.6	9.75	-57500
66271-54-3	3-Thiaheptadecane	273	1000	4	3577000	234	152.092	-13.403	-18680000	86	146	-375.6	19.43	-58600
66271-55-4	4-Thiaheptadecane	273	1000	4	3577000	234	152.092	-13.403	-18680000	86	146	-375.6	19.43	-243500
16900-08-6	5-Thiaheptadecane	273	1000	4	3577000	234	152.092	-13.403	-18680000	86	146	-375.6	19.43	-244300
2690-08-6	9-Thiaheptadecane	273	1000	4	3577000	234	152.092	-13.403	-18680000	86	146	-375.6	18.74	-244300
822-27-5	9,10-Dithiaoctadecane	273	1000	4	3660000	231	161.579	-24.613	-11690000	93	140	-390.9	20.41	-235200
66271-58-7	Perfluoroheptadecane	200	1500	4	54466000	1612	115.495	40.334	-2950000	62	16	-5423	60.62	-7458700
219-08-9	17H-Cyclopenta[a]phenanthrene	298	1000	4	2882000	336	95.757	-4.599	-3370000	49	174	-577.5	10.17	330000
235-92-7	1H-Cyclopenta[l]phenanthrene	298	1000	4	2653000	319	96.128	-5.287	-2990000	51	172	-647.1	9.27	325000
259-06-3	1H-Cyclopent[b]anthracene	298	1000	4	2938000	341	95.624	-4.358	-3530000	47	176	-569.7	10.37	356000
6742-54-7	Undecylbenzene	200	1500	4	1557000	235	90.538	72.647	-154350000	223	48	613.1	26.89	-85000
26186-00-5	1-Heptadecyne	200	1500	4	3474000	288	113.819	40.639	-84520000	143	100	1070.5	32.85	-25400
62108-61-6	1,1,1-Trichloroheptadecane	200	1500	4	5116000	291	156.198	15.695	-23530000	88	142	655.8	35.44	-365000
62126-84-5	1,1,1-Trifluoroheptadecane	200	1500	4	4430000	277	158.448	12.644	-21520000	95	139	578.9	32.24	-966100
5399-02-0	Heptadecanenitrile	200	1500	4	9643000	344	185.754	-39.998	41020000	15	229	-1097.6	22.34	-151400
5634-30-0	Dodecylcyclopentane	50	3000	4	2234000	247	175.942	-25.143	-28640000	233	73	46.1	26.15	-240600
6765-39-5	1-Heptadecene	200	1500	4	21672000	567	134.374	22.992	-42920000	16	236	2156.4	45.94	-183900
54105-66-7	Undecylcyclohexane	50	3000	4	2290000	292	170.808	-42.02	-71710000	241	74	1093.3	32.74	-264100
62046-36-0	1,1-Dichloroheptadecane	200	1500	4	4604000	280	157.156	15.121	-21190000	92	142	577.9	34.24	-350600
62127-06-4	1,1-Difluoroheptadecane	200	1500	4	4272000	273	158.014	14.371	-22140000	98	140	545.4	31.98	-720200
62016-75-5	1-Chloroheptadecane	200	1500	4	4328000	275	157.122	16.051	-21380000	95	143	551.8	31.78	-335300
1545-17-1	1-Fluoroheptadecane	200	1500	4	4055000	267	159.119	13.317	-20630000	102	140	499.7	29.92	-481600
61869-05-4	2,2-Dimethylpentadecane	200	1500	4	1373000	212	118.191	73.029	-157190000	245	33	727.4	26.78	-315900
2882-97-5	2,3-Dimethylpentadecane	200	1500	4	2636000	328	99.293	100.278	-204850000	246	34	1561.7	40.19	-304300
61868-07-3	2,4-Dimethylpentadecane	200	1500	4	2147000	304	111.316	80.82	-164500000	242	33	1373.9	37.58	-310100
629-78-7	Heptadecane	200	1000	4	17373000	522	294.601	-306.714	454540000	240	203	2179	44.25	-302200
1560-92-5	2-Methylhexadecane	200	1000	4	4172000	299	152.117	5.02	-41710000	121	129	1068.7	33.24	-306900
6418-43-5	3-Methylhexadecane	200	1500	4	2221000	275	102.043	91.05	-188870000	236	39	1303.3	36.67	-304400
1454-85-9	heptadecanol	200	1500	4	4408000	302	129.074	41.079	-76840000	116	121	1181.1	38.74	-448400
53193-22-9	1-Heptadecanethiol	273	1000	4	12306000	438	289.191	-261.535	339480000	217	185	1725	45.24	-264700
66577-60-4	2-Heptadecanethiol	273	1000	4	13239000	451	294.25	-292.309	377140000	219	189	1636.7	44.64	
27563-68-4	2-Thiaoctadecane	273	1000	4	2906000	189	170.427	-33.291	-8970000	100	137	-1311.5	5.09	-61300
64919-20-6	3-Thiaoctadecane	273	1000	4	3563000	221	163.698	-18.941	-16690000	87	145	-677.3	16.24	-62300
66577-61-5	4-Thiaoctadecane	273	1000	4	3563000	221	163.698	-18.941	-16690000	87	145	-677.3	16.24	-259200
66577-62-6	5-Thiaoctadecane	273	1000	4	3563000	221	163.698	-18.941	-16690000	87	145	-677.3	16.24	-260000
24768-65-8	Perfluorooctadecane	200	1500	4	59434000	1618	122.995	42.563	-4240000	69	13	-5743.1	63.03	-7868100
203-12-3	Benzo[ghi]fluorenthene	298	1000	4	2940000	341	92.008	-3.865	-4420000	39	179	-731.1	7.93	330000
27208-37-3	Cyclopenta[cd]pyrene	298	1000	4	2879000	360	93.818	-6.982	-6260000	66	164	-430.1	11.22	364000
193-76-0	Cyclopent[fg]aceanthrylene	298	1000	4	3119000	363	94.003	-7.303	-5450000	62	167	-437.2	10.66	478000
56-55-3	Benz[a]anthracene	298	1500	4	4901000	400	107.428	-19.131	5290000	42	192	-615.4	11.45	328000
195-19-7	Benzo[c]phenanthrene	298	1500	4	4236000	364	105.723	-16.274	5860000	29	194	-818.4	9.36	325600
218-01-9	Chrysene	298	1500	4	7977000	595	97.122	-0.896	-34760000	129	151	371.1	18.26	304200
92-24-0	Naphthacene	200	1500	4	1159000	267	102.792	-11.526	-8190000	120	121	-182.5	11.87	325000
217-59-4	Triphenylene	298	1500	4	10814000	884	85.974	17.121	-120800000	279	60	387	16.57	308200
123-01-3	Dodecylbenzene	200	1500	4	1751000	240	94.853	79.435	-170020000	224	47	721.2	29.08	-100700
604-88-6	Hexaethylbenzene	298	1000	4	3919000	326	109.52	26.654	-23430000	129	105	-7161.8	26.88	-224300
629-89-0	1-Octadecyne	200	1500	4	3825000	292	120.319	43.979	-91730000	142	101	1188	35.15	-41100
62108-62-7	1,1,1-Trichlorooctadecane	200	1500	4	5415000	291	164.691	17.743	-25770000	88	142	723.4	37.21	-380700
1511-82-6	1,1,1-Trifluorooctadecane	200	1500	4	19962000	498	196.394	-28.44	17200000	37	236	1519.3	47.16	-981800
638-65-3	Octadecanenitrile	200	1500	4	4470000	276	164.203	10.607	-16040000	98	142	423.2	31.75	-167100
1795-17-1	Dodecylcyclohexane	50	3000	4	2479000	292	181.807	-47.183	-74390000	241	74	1215.4	35.01	-279900
112-88-9	1-Octadecene	200	1500	4	23693000	573	141.147	26.437	-47790000	15	237	2358.9	49.01	-199600
6006-34-4	Tridecylcyclopentane	50	3000	4	2427000	248	186.165	-26.035	-30800000	233	72	46.7	27.55	-256300
62017-20-3	1,1-Dichlorooctadecane	200	1500	4	5657000	301	159.154	27.537	-29030000	80	149	808.7	38.29	-366300
62127-07-5	1,1-Difluorooctadecane	200	1500	4	4540000	273	167.305	15.148	-23500000	98	140	600.6	33.6	-735900
3386-33-2	1-Chlorooctadecane	200	1500	4	4628000	276	166.166	17.221	-23170000	95	143	620.4	33.56	-351300
1649-73-6	1-Fluorooctadecane	200	1500	4	4338000	268	167.333	15.804	-23190000	101	140	563.9	31.65	-497300
19486-08-9	2,2-Dimethylhexadecane	200	1500	4	1429000	207	124.82	75.854	-168270000	246	32	744	27.6	-331500
61868-02-8	2,3-Dimethylhexadecane	200	1500	4	2777000	323	103.956	106.423	-221190000	247	33	1655.8	42.17	-320000
61868-08-4	2,4-Dimethylhexadecane	200	1500	4	2314000	301	116.523	86.107	-178720000	242	33	1466.7	39.55	-325800
1560-89-0	2-Methylheptadecane	200	1000	4	4460000	298	162.277	1.821	-42630000	120	130	1133.6	34.91	-322600
6418-44-6	3-Methylheptadecane	200	1500	4	2381000	274	106.393	97.737	-205140000	237	38	1386.3	38.53	-320000
593-45-3	Octadecane	200	1000	4	17249000	508	314.893	-331.192	496580000	243	199	2262.9	46.29	-317900
112-92-5	1-Octadecanol	200	1500	4	2551000	259	66.5	156.16	-324500000	263	14	1141.1	38.6	-464100
2885-00-9	1-Octadecanethiol	273	1000	4	13162000	439	307.53	-281.736	369790000	217	186	1840.8	47.61	-280400
62155-06-0	2-Octadecanethiol	273	1000	4	14032000	451	311.472	-312.135	399910000	219	189	1765.1	47.09	
62155-11-7	2-Thianonadecane	273	1000	4	3300000	199	180.765	-36.703	-8970000	97	140	-1140.6	8.97	-65000
66292-31-7	3-Thianonadecane	273	1000	4	3779000	221	174.612	-23.367	-16490000	88	145	-695.1	16.88	-66100
66292-32-8	4-Thianonadecane	273	1000	4	3779000	221	174.612	-23.367	-16490000	88	145	-695.1	16.88	-274800
66292-33-9	5-Thianonadecane	273	1000	4	3779000	221	174.612	-23.367	-16490000	88	145	-695.1	16.88	-275600
929-98-6	10-Thianonadecane	273	1000	4	3779000	221	174.612	-23.367	-16490000	88	145	-695.1	16.19	-275600
4485-77-2	10,11-Dithiaicosane	273	1000	4	3870000	220	182.277	-31.231	-11660000	94	139	-660.7	18.45	-266500
66292-38-4	Perfluorononadecane	200	1500	4	55741000	1622	144.143	29.225	-1750000	73	12	-6132.9	64.79	-8277500
123-02-4	Tridecylbenzene	200	1500	4	1990000	246	100.961	83.281	-179340000	221	49	838.3	31.41	-116400
26186-01-6	1-Nonadecyne	200	1500	4	3732000	285	124.351	51.26	-110280000	156	91	1275.2	37	-56800
62108-63-8	1,1,1-Trichlorononadecane	200	1500	4	5740000	291	175.418	16.214	-25330000	88	143	-426.2	38.83	-396400
62126-85-6	1,1,1-Trifluorononadecane	200	1500	4	85730000	877	4.357	336.266	-550660000	115	203	4588.7	69.68	-997500
28623-46-3	Nonadecanenitrile	200	1500	4	4284000	263	172.801	12.515	-18780000	104	136	388.9	31.94	-182900
18435-45-5	1-Nonadecene	200	1500	4	25417000	575	149.349	27.443	-50230000	14	238	2530	51.85	-215300
1795-22-8	Tetradecylcyclopentane	50	3000	4	2634000	249	197.169	-28.087	-30410000	232	72	50.9	28.93	-271900
6006-33-3	Tridecylcyclohexane	50	3000	4	2693000	293	191.181	-49.573	-80800000	240	74	1334.4	37.29	-295600
62017-21-4	1,1-Dichlorononadecane	200	1500	4	5248000	282	176.54	15.395	-23090000	92	143	710.5	37.79	-382000
62127-08-6	1,1-Difluorononadecane	200	1500	4	4833000	274	176.216	16.532	-25530000	98	140	672	35.41	-751600
62016-76-6	1-Chlorononadecane	200	1500	4	4904000	276	175.556	17.832	-24350000	95	143	676.1	35.18	-367300
1480-63-3	1-Fluorononadecane	200	1500	4	4599000	268	175.76	17.948	-25220000	100	140	614.7	33.21	-513000
53594-82-4	2,2-Dimethylheptadecane	200	1500	4	1523000	206	134.638	73.265	-173970000	246	33	801	29.01	-347200
61868-03-9	2,3-Dimethylheptadecane	200	1500	4	2956000	319	109.425	111.263	-232850000	245	34	1752.1	44.19	-335600
61868-09-5	2,4-Dimethylheptadecane	200	1500	4	2509000	299	119.763	94.678	-195240000	241	33	1555.7	41.49	-341400
1560-88-9	2-Methyloctadecane	200	1000	4	4749000	298	170.165	2.788	-46610000	119	130	1218.7	36.8	-338200
6561-44-0	3-Methyloctadecane	200	1500	4	2621000	276	107.891	109.424	-222830000	235	38	1483.4	40.56	-335700
629-92-5	Nonadecane	200	1000	4	17513000	499	334.895	-351.705	540040000	244	197	2357.7	48.44	-333500
1454-84-8	1-Nonadecanol	200	1500	4	5822000	316	150.545	34.052	-67400000	94	138	1332.8	42.64	-479800
53193-23-0	1-Nonadecanethiol	273	1000	4	14016000	441	323.772	-300.974	386220000	217	186	1992.5	50.25	-296000
62155-07-1	2-Nonadecanethiol	273	1000	4	14825000	451	328.693	-331.965	422670000	219	189	1894.8	49.53	
40289-98-3	2-Thiaicosane	273	1000	4	3262000	189	190.574	-39.026	-10050000	100	137	-1440.6	4.97	-68700
66359-40-8	3-Thiaicosane	273	1000	4	3916000	218	184.214	-25.393	-17670000	89	144	-773.1	16.62	-69800
66359-41-9	4-Thiaicosane	273	1000	4	3916000	218	184.214	-25.393	-17670000	89	144	-773.1	16.62	-290500
66359-42-0	5-Thiaicosane	273	1000	4	3916000	218	184.214	-25.393	-17670000	89	144	-773.1	16.62	-291300
37589-57-4	Perfluoroicosane	200	1500	4	58396000	1603	126.665	55.719	-1920000	42	24	-6115.1	74.01	-8687000
96915-04-7	Dicyclopenta[cd,fg]pyrene	298	1000	4	2975000	362	102.67	-10.384	-8630000	80	156	-366.8	11.53	459000
98791-43-6	Dicyclopenta[cd,jk]pyrene	298	1000	4	3045000	357	103.319	-11.461	-5810000	72	160	-463.5	10.73	469000
97913-04-5	Dicyclopenta[cd,mn]pyrene	298	1000	4	3222000	370	103.175	-11.203	-7060000	74	161	-390.8	11.39	459000
202-33-5	Benz[j]aceanthrylene	298	1000	4	2662000	318	106.97	-6.306	-7460000	70	156	-507.3	11.33	434000
50-32-8	Benzo[a]pyrene	298	1500	4	1180000	267	120.377	-29.08	4340000	137	113	-211.7	13.44	324000
192-97-2	Benzo[e]pyrene	298	1500	4	28724000	769	100.8	6.852	-53230000	69	248	480.3	19.6	314000
207-08-9	Benzo[k]fluorenthene	298	1000	4	2479000	301	106.592	-5.985	-6470000	63	158	-637.4	9.4	404000
198-55-0	Perylene	200	1500	4	1233000	250	114.783	-19.795	-3920000	133	112	-230	12.4	342400
479-23-2	Cholanthrene	298	1000	4	2370000	286	114.338	-7.019	-5830000	70	156	-686.7	9.54	341000
1459-10-5	Tetradecylbenzene	200	1500	4	2215000	250	106.12	88.735	-190550000	219	50	943.1	33.55	-132100
765-27-5	1-Icosyne	200	1500	4	4090000	289	131.901	52.825	-115900000	154	93	1396.4	39.34	-72500
62108-64-9	1,1,1-Trichloroicosane	200	1500	4	6039000	291	184.03	18.075	-27440000	88	143	843.4	40.6	-412000
62126-86-7	1,1,1-Trifluoroicosane	200	1500	4	5247000	277	185.144	16.842	-26970000	95	139	758	37.23	-1013100
4616-73-3	Icosanenitrile	200	1500	4	4533000	263	182.218	13.087	-20030000	104	136	438.9	33.48	-198600
3452-07-1	1-Icosene	200	1500	4	27098000	577	155.639	31.602	-55200000	13	238	2715.3	54.77	-231000
4669-01-6	Pentadecylcyclopentane	50	3000	4	2819000	249	207.68	-29.388	-29830000	230	72	48.9	30.26	-287500
1795-18-2	Tetradecylcyclohexane	50	3000	4	2884000	293	201.005	-52.686	-85430000	239	74	1455.4	39.56	-311300
62017-22-5	1,1-Dichloroicosane	200	1500	4	5533000	282	185.607	16.522	-24670000	92	143	770.9	39.46	-397700
62127-09-7	1,1-Difluoroicosane	200	1500	4	5103000	274	185.486	17.336	-26930000	98	140	728.4	37.02	-767200
42217-02-7	1-Chloroicosane	200	1500	4	5234000	277	185.612	17.367	-24340000	94	144	730.5	36.82	-383200
676-44-8	1-Fluoroicosane	200	1500	4	4886000	269	184.886	18.986	-26990000	100	140	683	34.98	-528600
61869-06-5	2,2-Dimethyloctadecane	200	1500	4	1148000	150	160.894	44.322	-131370000	238	39	33.9	16.07	-362800
61868-04-0	2,3-Dimethyloctadecane	200	1500	4	3041000	314	111.545	121.623	-258180000	250	30	1830	45.95	-351300
61868-10-8	2,4-Dimethyloctadecane	200	1500	4	2606000	295	122.982	103.269	-216570000	245	30	1632.6	43.23	-357100
112-95-8	Icosane	200	1000	4	17731000	491	353.013	-378.56	563800000	246	194	2467.1	50.68	-349200
1560-86-7	2-Methylnonadecane	200	1000	4	5011000	297	178.334	3.355	-49870000	118	130	1291.5	38.55	-353900
6418-45-7	3-Methylnonadecane	200	1500	4	2545000	263	120.194	103.076	-219760000	234	39	1496.7	41.44	-351300
629-96-9	1-Icosanol	200	1500	4	2310000	235	90.717	143.135	-333280000	269	12	1122	39.5	-495600
13373-97-2	1-Icosanethiol	273	1000	4	14841000	441	342.742	-321.387	420790000	217	187	2095.6	52.51	-311700
62155-12-8	2-Thiahenicosane	273	1000	4	3383000	187	200.214	-41.111	-11350000	101	136	-1541.7	4.17	-72500
41947-84-6	3-Thiahenicosane	273	1000	4	4007000	213	194.356	-28.327	-17980000	90	143	-922.8	15.33	-73600
66455-35-4	4-Thiahenicosane	273	1000	4	4007000	213	194.356	-28.327	-17980000	90	143	-922.8	15.33	-306100
18437-89-3	5-Thiahenicosane	273	1000	4	4007000	213	194.356	-28.327	-17980000	90	143	-922.8	15.33	-306900
693-83-4	11-Thiahenicosane	273	1000	4	4007000	213	194.356	-28.327	-17980000	90	143	-922.8	14.63	-306900
10496-18-1	11,12-Dithiadocosane	273	1000	4	3800000	202	205.765	-43.248	-9810000	102	134	-1097.5	13.32	-297800
213-73-0	1H-Cyclopenta[a]chrysene	298	1000	4	2273000	275	116.628	-5.131	-6590000	70	152	-742.5	9.1	381000
2131-18-2	Pentadecylbenzene	200	1500	4	2429000	253	108.438	98.946	-207920000	219	49	1037.4	35.59	-147800
66326-13-4	Henicosanenitrile	200	1500	4	4808000	264	189.984	16.289	-23150000	103	136	505.7	35.24	-214400
6812-39-1	Hexadecylcyclopentane	50	3000	4	3031000	250	219.37	-32.689	-28690000	230	72	50.3	31.66	-303200
6006-95-7	Pentadecylcyclohexane	50	3000	4	3104000	294	209.936	-54.52	-93100000	238	74	1576.1	41.85	-327000
90719-57-6	Dicyclopenta[ghi,pqr]perylene	298	1000	4	2922000	352	112.034	-14.689	-6900000	76	158	-492.3	9.97	431000
96915-05-8	Tricyclopenta[cd,fg,jk]pyrene	298	1000	4	2619000	334	111.517	-13.711	-8820000	89	147	-427.3	11.89	579000
191-24-2	Benzo[ghi]perylene	298	1000	4	3530000	348	115.46	-8.955	-7790000	64	163	-534.4	10.85	335000
191-26-4	Dibenzo[def,mno]chrysene	298	1000	4	2514000	298	116.155	-10.38	-6240000	71	153	-695.7	8.81	345000
193-43-1	Indeno[1,2,3-cd]fluorenthene	298	1000	4	2294000	287	114.928	-8.294	-9350000	73	153	-684.2	8.28	465000
226-88-0	Benzo[a]naphthacene	298	1500	4	13912000	589	129.565	-21.401	-16460000	94	192	378.9	21.62	385000
214-17-5	Benzo[b]chrysene	298	1500	4	1851000	207	126.637	-18.025	6190000	45	161	-1809.3	-3.13	375000
215-58-7	Benzo[b]triphenylene	298	1500	4	24614000	730	115.747	3.232	-59100000	93	216	461.6	20.64	365000
194-69-4	Benzo[c]chrysene	298	1500	4	5731000	374	136.919	-33.813	16700000	30	201	-1104.5	9.45	370000
196-78-1	Benzo[g]chrysene	298	1500	4	17195000	679	116.296	2.27	-54680000	113	184	450.3	21.17	359000
53-70-3	Dibenz[a,h]anthracene	298	1500	4	4023000	395	126.374	-16.581	-7730000	99	143	-80.2	16.63	375000
224-41-9	Dibenzo[a,j]anthracene	298	1500	4	4023000	395	126.374	-16.581	-7730000	99	143	41.2	17.45	375000
188-52-3	Dibenzo[c,g]phenanthrene	298	1500	4	714000	381	130.92	-23.242	-10200000	194	69	439.7	21.49	376000
195-06-2	Naphth[1,2-a]anthracene	298	1000	4	2157000	259	120.414	-6.342	-6460000	70	149	-856.8	8.8	380000
135-48-8	Pentacene	200	1500	4	1923000	298	123.519	-12.031	-12150000	112	126	-157.2	14.04	396000
222-93-5	Pentaphene	298	1500	4	13912000	589	129.565	-21.401	-16460000	94	192	378.9	20.92	385000
213-46-7	Pycene	298	1500	4	18487000	696	106.535	18.369	-82290000	125	174	552.2	21.63	365000
1459-09-2	Hexadecylbenzene	200	1500	4	2678000	257	112.959	105.479	-219960000	217	50	1148.5	37.81	-163500
6812-38-0	Hexadecylcyclohexane	50	3000	4	3298000	294	220.562	-59.043	-97050000	238	74	1696.2	44.11	-342700
96915-06-9	Tetracyclopenta[cd,fg,jk,mn]pyrene	298	1000	4	3106000	349	119.57	-15.632	-11100000	89	150	-419.6	11.06	689000
96915-21-8	Benz[m,n,o]indeno[1,7,6,5-cdef]chrysene	298	1000	4	2775000	324	123.216	-10.337	-12320000	87	145	-438.6	12.46	455000
96915-19-4	Benz[m,n,o]indeno[5,6,7,1-defg]chrysene	298	1000	4	2743000	315	124.078	-11.884	-10480000	86	145	-507	11.73	464000
190-88-5	Benzo[ghi]cyclopenta[cd]perylene	298	1000	4	2498000	306	123.865	-11.513	-10990000	90	141	-504.6	11.59	445000
191-07-1	Coronene	50	1500	4	502000	237	107.614	4.855	-57860000	192	66	96.9	13.97	355000
96915-20-7	Dibenzo[def,mno]cyclopenta[hi]chrysene	298	1000	4	2687000	314	123.88	-11.499	-10770000	87	144	-498.5	11.79	465000
80879-80-7	Dicyclopenta[cd,lm]perylene	298	1000	4	2403000	300	123.206	-10.352	-11050000	90	139	-507.9	10.21	564000
96915-18-3	Indeno[5,6,7,1-pqra]perylene	298	1000	4	2576000	306	124.271	-12.223	-10260000	86	145	-556.1	11.13	445000
189-64-0	Dibenzo[b,def]chrysene	298	1000	4	4348000	410	112.989	20.505	-37480000	96	137	139.1	18.15	390000
214-63-1	Dibenzo[de,mn]naphthacene	298	1000	4	2165000	257	129.082	-9.182	-7840000	79	143	-862.1	7.44	390000
193-09-9	Dibenzo[de,qr]naphthacene	298	1000	4	2240000	266	128.284	-7.764	-9510000	81	142	-753	8.67	390000
192-51-8	Dibenzo[fg,op]naphthacene	298	1000	4	2006000	240	127.938	-7.222	-8550000	79	141	-1019.5	4.42	369000
92627-26-4	Cyclopenta[bc]coronene	298	1000	4	2677000	306	133.858	-16.789	-9860000	91	142	-576.7	10.55	465000
188-96-5	Dibenzo[cd,lm]perylene	298	1000	4	2248000	259	138.638	-13.688	-8190000	86	139	-853.7	7.04	400000
197-61-5	Rubicene	298	1000	4	2043000	235	137.553	-11.929	-8580000	84	138	-1062.4	5.06	539000
96915-08-1	Dicyclopenta[bc,hi]coronene	298	1000	4	2902000	317	141.403	-17.852	-13470000	96	140	-496.6	11.74	575000
190-71-6	Benzo[pqr]naphtho[8,1,2-bcd]perylene	298	1000	4	2807000	304	143.79	-10.354	-17480000	98	134	-442.4	12.57	410000
190-39-6	Phenanthro[1,10,9,8-opqra]perylene	298	1000	4	3344000	340	141.066	-5.626	-24440000	103	133	-198.8	14.42	410000
96928-77-7	Tricyclopenta[bc,hi,no]coronene	298	1000	4	3565000	354	145.812	-13.457	-23370000	107	133	-216.6	13.87	684000
190-31-8	Dibenzo[bc,ef]coronene	298	1000	4	2867000	303	152.241	-12.917	-19280000	102	132	-460.8	12.61	431000
190-55-6	Dibenzo[bc,kl]coronene	298	1000	4	2672000	288	154.26	-16.478	-15430000	100	133	-589.1	10.56	441000
191-13-9	Pyranthrene	298	1000	4	2267000	250	157.963	-11.162	-15830000	99	129	-793.7	9.24	476000
190-26-1	Ovalene	298	1000	4	2986000	303	162.22	-18.218	-18610000	104	132	-501.7	11.82	456000
96915-09-2	Tetracyclopenta[bc,ef,hi,no]coronene	298	1000	4	3265000	327	156.775	-20.641	-20810000	110	131	-372.3	13.59	794000