CASRN	Chemical	Tmin	Tmax	a0	a1	a2	a3	a4	a5	a6	a7	I	J	Hf
37635-87-3	1,3-Dioxol-2-thione	298	1000	4	996000	333	-3.179	38.689	-22050000	12	162	-459.7	6.28	
106-96-7	3-Bromopropyne	298	1000	4	8129000	847	6.947	11.622	5740000	51	65	-203.5	10.96	
624-65-7	3-Chloropropyne	298	1000	4	11962000	768	4.612	14.147	9190000	46	59	-234.5	9.49	
2805-22-3	3-Fluoropropyne	298	1000	4	9442000	839	6.87	11.747	7770000	53	61	-212.2	8.5	
430-72-8	Propenoyl fluoride	298	1000	4	9813000	815	15.407	5.01	12150000	72	41	11.8	10.17	
107-13-1	2-Propenenitrile	50	1500	4	222000	350	31.471	-24.829	55700000	366	92	-2.2	7.89	187200
288-14-2	1,2-Oxazole	50	2000	4	5606000	995	19.7	1.833	-16170000	143	206	1.6	8.78	91300
288-42-6	1,3-Oxazole	50	2000	4	302000	567	18.8	2.313	-7860000	98	150	-2.4	8.72	-2900
19274-14-7	1,2-Oxazole-d3	50	2000	4	7629000	1183	21.073	-1.705	-38250000	360	74	0.3	9.13	
288-16-4	1,2-Thiazole	50	2000	4	9228000	1299	28.233	-13.759	5740000	456	74	-0.2	9.58	
288-47-1	1,3-Thiazole	50	2000	4	6897000	1228	29.055	-14.52	15780000	400	75	0.1	9.63	
290-87-9	1,3,5-Triazine	298	1000	4	1812000	1176	13.792	18.516	-35400000	238	49	11.1	7.91	254400
2781-85-3	Cyclopropene	50	1500	4	9454000	1350	19.693	-8.091	-73500000	585	81	0	5.76	285800
463-49-0	Propadiene	50	1500	4	775000	543	27.634	-16.584	36190000	288	152	0.2	4.95	198400
74-99-7	Propyne	50	3000	4	907000	537	25.239	-12.995	21920000	299	146	0.2	5.26	191600
16837-84-6	Cyclopropene-1-d	298	1000	4	214000	271	21.454	-6.04	7850000	93	187	-173.8	5.07	
69166-07-0	Cyclopropene-3-d	298	1000	4	506000	471	21.528	-6.713	7430000	89	196	-79	6.03	
16837-85-7	Cyclopropene-1,2-d2	298	1000	4	463000	547	22.108	-7.067	6310000	180	147	-4.5	6.04	
26028-32-0	Cyclopropene-3,3-d2	298	1000	4	112000	167	23.635	-10.358	10590000	96	176	-267	3.01	
69166-08-1	Cyclopropene-1,3,3-d3	298	1000	4	220000	262	22.497	-8.201	7380000	77	176	-183.6	5.09	
26028-33-1	Cyclopropene-d4	298	1000	4	4745000	853	19.649	-3.425	-9830000	165	220	-12.3	6.3	
53531-46-7	2-Bromo-3-fluoro-1-propene	298	1000	4	967000	334	38.01	-24.807	29490000	180	157	-180.8	10.24	
19481-82-4	2-Bromopropanenitrile	298	1000	4	702000	291	37.877	-23.474	30850000	188	150	-127.7	10.2	
32804-07-2	2-Chloro-3-fluoro-1-propene	298	1000	4	1385000	438	38.75	-26.401	34550000	205	158	-31	10.43	
1617-17-0	2-Chloropropanenitrile	298	1000	4	1437000	967	24.89	-2.516	6620000	19	143	485.3	14.72	
5009-27-8	Cyclopropanone	50	1500	4	1343000	694	37.657	-30.206	67140000	321	145	0.6	7.42	5800
6004-44-0	Methylketene (1-Propen-1-one)	50	1500	4	105000	265	22.431	-2.59	-11540000	391	8	1	6.79	-77000
107-02-8	2-Propenal (Acrolein)	50	1500	4	155000	286	39.711	-37.731	72970000	366	85	0.5	8.11	-74000
57-57-8	3-Propanolyde	298	1000	4	114000	795	13.319	19.757	-31160000	235	42	35.5	9.45	-282300
79-10-7	Propenoic acid	50	1500	4	57000	160	18.926	5.855	-9510000	169	64	5.1	9.65	-311000
96-49-1	1,3-Dioxolan-2-one	298	1000	4	0	373	16.609	19.903	-36530000	256	25	21.3	9.47	-488100
96-18-4	1,2,3-Trichloropropane	298	1000	4	114843000	1266	68.295	-52.663	194780000	149	48	-2597.5	15.8	-185800
4333-56-6	Bromocyclopropane	298	700	4	231000	250	48.98	-28.418	112180000	318	121	-131.3	8.88	
106-95-6	3-Bromo-1-propene	298	1000	4	1106000	368	31.653	-11.967	14020000	112	198	-75.9	10.18	
590-13-6	cis-1-Bromo-1-propene	298	1000	4	3558000	767	22.613	5.187	-9190000	127	204	113.8	12.06	63200
590-15-8	trans-1-Bromo-1-propene	298	1000	4	790000	595	11.836	22.915	-36470000	271	32	67.9	10.92	65200
598-22-1	Propanoyl bromide	298	1000	4	632000	240	37.692	-17.769	23380000	239	108	-291.3	8.64	
7393-45-4	Chlorocyclopropane	298	700	4	668000	379	21.168	13.33	1160000	7	192	-129.5	8.09	
16136-84-8	cis-1-Chloro-1-propene	298	1000	4	800000	448	34.811	-18.802	26460000	199	174	7.5	9.95	
16136-85-9	trans-1-Chloro-1-propene	298	1000	4	890000	442	14.419	16.493	-9000000	59	160	-9.9	9.23	
557-98-2	2-Chloropropene	298	1000	4	902000	320	27.072	-5.091	7780000	38	207	-373.3	6.37	-7500
107-05-1	3-Chloro-1-propene	298	1000	4	1864000	513	29.864	-8.636	8850000	106	214	106	10.94	
79-03-8	Propanoyl chloride	298	1000	4	236000	143	31.226	-5.511	4410000	268	55	-437.5	4.23	
7789-89-1	1,1,1-Trichloropropane	200	1500	4	905000	310	29.27	0.001	-2730000	91	121	-195.7	11.69	-145600
1184-60-7	2-Fluoro-1-propene	298	1000	4	1407000	482	29.499	-8.195	10540000	149	180	-40.2	8.32	
818-92-8	3-Fluoro-1-propene	298	1000	4	831000	393	33.363	-15.12	18130000	155	188	14.9	9.24	
430-71-7	Propanoyl fluoride	298	1000	4	657000	333	26.833	1.887	-14090000	280	61	-41.7	9.62	
421-07-8	1,1,1-Trifluoropropane	200	1500	4	423000	247	30.32	-1.241	-1050000	108	117	-238.2	8.99	-746800
4375-96-6	2-Iodopropene	298	1000	4	572000	251	21.143	3.262	1320000	14	180	-380	7.49	
556-56-9	3-Iodo-1-propene	298	1000	4	1149000	438	32.614	-12.949	17140000	222	133	40.2	11.77	105400
107-12-0	Propanenitrile	200	1500	4	48000	115	36.854	-22.018	39820000	410	46	-128.2	5.97	65000
75-19-4	Cyclopropane	50	1500	4	16428000	1421	84.521	-83.44	3798360000	1498	92	-0.2	5.02	70400
115-07-1	Propene	50	3000	4	559000	437	34.473	-17.934	27680000	297	144	4.2	7.08	34700
78-75-1	1,2-Dibromopropane	298	1000	4	609680000	1576	52.114	-16.594	715770000	144	92	-2106.8	18.32	-72800
78-99-9	1,1-Dichloropropane	200	1500	4	86097000	1359	47.818	-24.74	131190000	151	56	-28.7	13.2	-131300
78-87-5	1,2-Dichloropropane	298	1000	4	155066000	1253	65.088	-45.973	234210000	140	52	-2360	13.63	-165700
142-28-9	1,3-Dichloropropane	298	1000	4	108319000	1180	62.296	-44.71	172650000	135	46	-2419	14.63	-161500
594-20-7	2,2-Dichloropropane	298	1000	4	1461000	550	101.726	95.718	1524090000	805	21	61.5	10.88	-158400
430-61-5	1,1-Difluoropropane	200	1500	4	388000	242	30.954	-1.175	-990000	138	124	-243.6	9.13	-500900
420-45-1	2,2-Difluoropropane	298	1000	4	9418000	812	97.174	501.925	2029220000	687	226	147.7	10.09	-502700
598-29-8	1,2-Diiodopropane	298	1000	4	24606000	567	12.105	18.373	25370000	43	39	-2436.9	17.79	36000
16545-68-9	Cyclopropanol	50	1500	4	196000	357	14.058	19.564	-20940000	137	93	-1.1	8.96	-117700
75-56-9	DL-Methyloxirane	50	1500	4	748000	454	51.276	-43.696	109760000	358	141	2.8	8.33	-75200
123-38-6	Propanal	273	1500	4	1523000	429	45.148	-19.992	36840000	278	188	1.9	8.8	-170600
67-64-1	Propanone	200	1500	4	533000	332	42.217	-27.694	46810000	321	132	39.7	8.6	-200500
107-18-6	2-Propenol (Allyl alchohol)	298	1000	4	4610000	1651	37.443	-15.613	36290000	441	25	-1766.5	11.32	-131900
79-20-9	Methylethanoate	298	1000	4	403000	291	20.471	19.489	-28810000	221	72	70.7	10.78	-393000
110-88-3	1,3,5-Trioxane	298	1000	4	29000	85	100.952	-80.783	874120000	684	62	-150.9	5.73	-439400
870-23-5	2-Propene-1-thiol	298	1000	4	236000	224	49.017	-35.656	75990000	330	90	-75	8.61	
287-27-4	Thiacyclobutane	273	1000	4	273000	265	24.137	10.375	-4340000	64	172	-125.1	7.92	80300
2025-55-0	1-Methylethylradical	200	3000	4	2165000	581	36.084	-16.024	15970000	214	219	165.6	9.09	93000
2143-61-5	Propyl	200	3000	4	3693000	699	36.19	-16.308	16630000	229	222	130.5	9.55	104800
106-94-5	1-Bromopropane	298	1000	4	518000	249	45.844	-25.93	41260000	217	148	-257.7	9.45	-59100
75-26-3	2-Bromopropane	298	1000	4	75995000	1201	69.52	-54.584	160800000	176	15	-2474.7	6.55	-97000
540-54-5	1-Chloropropane	200	1500	4	203000	157	31.595	-1.583	1140000	163	116	-321.8	6.53	-111200
75-29-6	2-Chloropropane	200	1500	4	1082000	415	46.781	-28.074	48650000	263	143	-16	9.43	-124300
460-13-9	1-Flouropropane	200	1500	4	790000	369	52.101	-38.825	80100000	305	145	-122.3	9.32	-262300
420-26-8	2-Fluoropropane	298	1000	4	658000	404	54.209	-39.613	98950000	351	117	8.9	8.72	-272300
107-08-4	1-Iodopropane	298	1000	4	262000	352	79.097	-55.425	583010000	683	32	82.5	13.64	-8300
75-30-9	2-Iodopropane	298	1000	4	68190000	1196	65.019	-48.391	144010000	175	15	-2459.9	7.79	-41700
765-30-0	Aminocyclopropane	298	1000	4	434000	202	54.261	-40.893	82590000	231	148	-494.9	1.5	97500
4753-69-9	Iminopropane	200	1000	4	493000	490	53.013	-37.724	100500000	319	145	192	9.41	
79-16-3	N-Methylethaneamide	298	1500	4	11758000	865	69.633	-49.053	325580000	401	285	245.1	11.56	
108-03-2	1-Nitropropane	50	1500	4	68000	183	92.184	-108.697	532840000	678	5	15.7	12.65	99200
79-46-9	2-Nitropropane	50	1500	4	124000	278	101.166	-121.596	779340000	738	2	18.2	12.45	-112400
1712-64-7	Isopropyl nitrate	298	1000	4	22249000	1101	44.892	-8.617	39370000	144	15	-2796	12.34	-191000
627-13-4	Propyl nitrate	298	1000	4	49615000	1175	66.508	-37.75	101810000	164	17	-2941.5	12.7	-174100
74-98-6	Propane	50	1500	4	786000	438	49.724	-33.223	75640000	341	145	1.5	6.73	-82400
540-67-0	Ethylmethyl ether	100	1500	4	523000	322	33.925	0.675	-10410000	256	83	11.7	8.78	-193600
71-23-8	1-Propanol	50	3000	4	264000	242	42.307	-15.324	13510000	283	97	11.5	10.61	-231300
67-63-0	2-Propanol	50	3000	4	1453000	455	35.951	-8.117	3460000	143	166	21.8	9.89	-248600
107-03-9	1-Propanethiol	273	1000	4	376000	205	47.354	-19.43	31460000	269	106	-211.9	8.33	-45400
75-33-2	2-Propanethiol	273	1000	4	1003000	367	56.49	-35.66	76920000	303	131	-51.1	10.24	-52900
624-89-5	2-Thiabutane	273	1000	4	454000	210	31.925	3.287	710000	120	134	-298.8	7.23	-8800
75-31-0	2-Propanamine	50	1500	4	186000	256	79.406	-78.032	338760000	615	24	3	8.76	-56900
107-10-8	Propylamine	50	1500	4	296000	274	77.663	-75.966	284970000	554	65	3.8	10.99	-42400
75-50-3	Trimethylamine	298	1000	4	74966000	1353	38.318	-1.337	97520000	144	56	-2066.7	7.54	-23700
36333-41-2	Dibromo-1,3-butadiyne	298	600	4	1448000	429	36.69	-30.861	108210000	419	50	114.7	12.01	
51104-87-1	Dichloro-1,3-butadiyne	298	600	4	3152000	514	22.923	-12.405	14440000	150	195	74.7	9.79	
336-50-5	1,1,2,2-Tetrachloro-3,3,4,4-tetrafluorocyclobutane	298	1000	4	200000	100	41.855	-14.008	-260000	101	52	-525.9	1.76	
6012-97-1	Tetrachlorothiophene	300	1000	4	3179000	605	91.509	-77.621	1124260000	758	30	147.2	15.25	
87-68-3	Hexachloro-1,3-butadiene	298	1000	4	620000	246	33.266	-9.758	-960000	115	48	77.2	16.67	-29900
692-50-2	Hexafluoro-2-butyne	298	1000	4	618000	260	32.639	-9.701	-350000	81	102	10	13.96	
115-25-3	Octaflourocyclobutane	298	1000	4	134485000	1474	112.566	-107.724	349780000	243	10	-3701	9.97	-1528000
4520-67-6	Perfluorobutyl radical	50	3000	4	17421000	493	51.343	-20.941	24340000	49	24	23.2	17.99	-1694000
355-25-9	Perfluorobutane	200	1500	4	11391000	1521	36.372	-0.353	1320000	71	27	-1622.5	17.78	-2136000
53214-97-4	Diiodo-1,3-butadiyne	298	600	4	247000	-238	103.732	4589.997	1796000000	261	221	3677.8	18.47	
1071-98-3	Acetylenedicarbonitrile	298	1000	3.5	9643000	1363	37.16	-33.926	53950000	224	17	-2103.9	8.92	533500
6088-90-0	Bromo-1,3-butadiyne	298	600	4	583000	450	5.421	12.469	-4170000	100	38	25	8.99	
6089-44-7	Chloro-1,3-butadiyne	298	600	4	657000	452	6.303	11.124	-3430000	87	50	30.6	8.7	
21484-05-9	trans-1,1,2,3,4-Pentachloro-1,3-butadiene	298	1000	4	824000	319	30.827	-6.132	-2390000	130	56	211.5	18.75	-23100
6088-91-1	1-Iodo-1,3-butadiyne	298	600	4	1125000	550	12.249	2.724	0	106	60	73.4	10.17	
460-12-8	1,3-Butadiyne	50	1500	3.5	305000	336	7.342	8.132	-1650000	16	99	-1	6.57	448300
32460-00-7	2,5-Dibromofurane	298	1000	4	528000	292	22.802	1.538	-6100000	102	106	-29.4	12.9	
42587-83-7	2,5-Dichlorofurane	298	1000	4	160000	193	22.231	2.283	-8760000	148	70	-123.1	9.9	
921-09-5	1,1,2,3-Tetrachloro-1,3-butadiene	298	1000	4	843000	315	27.303	-0.619	-3720000	111	76	144.7	16.89	-5100
36038-53-6	1,1,4,4-Tetrachloro-1,3-butadiene	298	1000	4	485000	204	27.315	-0.826	-2620000	87	86	-173.6	11.95	41100
584-12-3	2-Bromofurane	298	1000	4	219000	239	21.173	4.021	-6050000	90	120	-92.2	10.5	
558-61-2	1,1,2,2-Tetrafluoro-3-chlorocyclobutane	298	1000	4	226000	195	28.929	6.278	-15600000	168	49	20.4	12.29	
3187-94-8	2-Chlorofurane	298	1000	4	158000	200	21.157	4.066	-6360000	92	120	-156	8.79	
2852-07-5	1,1,2-Trichloro-1,3-butadiene	298	1000	4	1555000	407	25.274	3.426	-7590000	129	94	201	15.76	-2900
689-97-4	1-Buten-3-yne	298	1000	4	1617000	1058	16.944	8.964	-7880000	268	25	-1740.4	8.04	304600
1120-53-2	1,3-Cyclobutadiene	50	1500	4	733000	668	41.61	-37.09	105100000	353	139	-2.4	6.29	
2219-66-1	1,4-Dibromo-2-butyne	298	1000	4	1296000	366	24.542	3.967	-2090000	49	159	-38.3	17.44	
3588-11-2	cis,cis-1,4-Dichloro-1,3-butadiene	298	1000	4	2427000	513	23.762	6.805	-7060000	60	172	132.7	12.96	79300
3588-13-4	cis,trans-1,4-Dichloro-1,3-butadiene	298	1000	4	279000	184	22.671	7.067	-5350000	98	98	-214.5	9.24	82000
3588-12-3	trans,trans-1,4-Dichloro-1,3-butadiene	298	1000	4	1299000	364	25.714	2.814	-2490000	45	166	7517.8	11.42	22100
821-10-3	1,4-Dichloro-2-butyne	298	1000	4	1338000	360	26.219	1.43	-370000	36	179	-279.1	14.13	
1653-19-6	2,3-Dichloro-1,3-butadiene	298	1000	4	2029000	465	23.702	5.725	-3680000	33	167	13.5	11.54	-43400
407-82-9	1,4-Difluoro-2-butyne	298	1000	4	1401000	381	29.043	-2.427	830000	63	191	-309	12.35	
290-37-9	Pyrazine	298	1000	4	809000	454	25.92	3.21	-4990000	61	176	-79.8	7.61	212200
289-80-5	Pyridazine	298	1000	4	840000	466	25.121	4.387	-5500000	52	178	-68.6	8.43	294400
289-95-2	Pyrimidine	298	1000	4	685000	410	25.479	3.702	-4750000	54	174	-98.8	8.13	212400
67-52-7	Barbituric acid	298	1000	4	490000	232	13.526	33.177	-15560000	25	119	-193.3	11.07	-488300
110-00-9	Furan	50	1500	4	803000	689	52.696	-52.4	144900000	352	142	-1.5	8.09	-21600
6142-86-5	Furan-2-d	50	1500	4	10148000	1026	58.997	-59.646	438790000	579	210	2.4	8.91	-26000
6142-87-6	Furan-3-d	50	1500	4	11789000	1054	60.785	-57.801	542430000	621	222	2.8	8.91	-25800
6142-88-7	Furan-2,5-d2	50	1500	4	7355000	934	20.972	6.754	-22780000	134	204	2.7	8.29	-30300
6142-89-8	Furan-3,4-d2	50	1500	4	8144000	952	19.904	8.771	-27400000	139	206	1.9	8.29	-30300
6148-44-3	Furan-2,3,5-d3	50	1500	4	7583000	912	21.569	5.391	-25040000	142	203	2.3	9.07	-34600
6142-90-1	Furan-d4	50	1500	4	8028000	901	21.567	5.102	-28930000	148	203	2.3	8.46	-38600
674-82-8	Diketene (4-Methylene-2-oxetanone)	50	1500	4	108000	239	25.433	3.72	-11530000	187	79	-1.3	9.94	-176400
110-02-1	Thiophene	50	1500	4	7146000	1195	42.236	-34.15	85870000	507	71	0.5	8.96	127200
2788-41-2	Thiophene-2-d	50	1500	4	6266000	1160	34.341	-17.981	18290000	391	70	0.2	9.73	123000
1192-05-8	Thiophene-3-d	50	1500	4	6540000	1158	34.695	-18.868	19840000	400	71	0.6	9.74	123100
1120-76-9	Thiophene-2,3-d2	50	1500	4	5877000	1087	30.54	-11.154	-3710000	355	68	0.5	9.81	118800
16841-38-6	Thiophene-2,4-d2	50	1500	4	5873000	1094	31.094	-12.171	-1020000	357	68	0.2	9.81	118700
2041-42-1	Thiophene-2,5-d2	50	1500	4	5405000	1090	31.647	-13.171	1950000	352	68	0.5	9.11	119000
1120-75-8	Thiophene-3,4-d2	50	1500	4	6131000	1088	30.745	-11.722	-3770000	361	69	1.3	9.12	118700
1121-06-8	Thiophene-2,3,4-d3	50	1500	4	5607000	1020	29.494	-9.927	-12910000	349	66	0.7	9.88	114600
2041-43-2	Thiophene-2,3,5-d3	50	1500	4	5194000	1019	30.341	-11.402	-8330000	345	66	1.1	9.88	114700
2036-39-7	Thiophene-d4	50	1500	4	5525000	969	28.441	-8.682	-22540000	349	63	0.4	9.25	110500
3355-28-0	Bromo-2-butyne	298	1000	4	1633000	420	27.93	0.443	710000	76	190	-258.3	12.65	
1192-01-4	2-Bromocyclobutanone	298	1000	4	254000	238	25.61	7.513	-6580000	95	125	59.3	11.64	
19270-08-7	4-Bromocyclobutanone-2,2,4-d3	298	1000	4	797000	478	32.813	-3.733	-2720000	139	114	262.8	13.88	
10033-99-5	cis-1-Chloro-1,3-butadiene	298	1000	4	1466000	420	26.471	2.209	-430000	31	197	-105.5	9.78	101700
16503-25-6	trans-1-Chloro-1,3-butadiene	298	1000	4	1739000	457	26.286	2.922	-2220000	51	192	-22	10.29	104300
126-99-8	2-Chloro-1,3-butadiene	298	1000	4	3518000	575	30.869	-4.199	4540000	58	223	7099.5	10.24	-18900
3355-17-7	Chloro-2-butyne	298	1000	4	1651000	426	28.847	-0.995	1660000	81	194	-270.8	11.97	
20686-67-3	2-Chlorocyclobutanone	298	1000	4	2660000	562	31.68	-1.361	-10000	45	217	75.3	11.44	
20686-68-4	4-Chlorocyclobutanone-2,2,4-d3	298	1000	4	265000	268	33.001	-4.225	400000	105	123	112.4	11.36	
381-67-9	2-Methylpropenoylfluoride	298	1000	4	484000	330	30.24	3.753	-7900000	213	53	722.2	9.48	
627-26-9	(E)-2-Butenenitrile	50	1500	4	231000	323	59.701	-64.359	232530000	622	11	1	9.15	153100
1190-76-7	(Z)-2-Butenenitrile	50	1500	4	247000	266	31.165	-5.551	-4390000	297	62	2.1	9.45	146600
5500-21-0	Cyclopropyl cyanide	298	1000	4	1250000	625	68.361	-57.633	383400000	565	93	105	14.87	
109-97-7	Pyrrole	50	1500	4	1260000	679	58.202	-55.415	160530000	361	143	-2.8	8.1	
590-19-2	1,2-Butadiene	50	1500	4	285000	302	47.624	-38.524	81570000	435	72	1	8.32	175800
106-99-0	1,3-Butadiene	50	1500	4	211000	304	64.379	-67.233	235550000	433	96	-1.9	7.46	124500
107-00-6	1-Butyne	50	3000	4	329000	333	39.813	-20.253	35130000	314	87	-0.4	8.35	178900
503-17-3	2-Butyne	50	3000	4	199000	248	29.897	-2.555	-13520000	339	56	18.8	6.76	159000
822-35-5	Cyclobutene	50	1500	4	2219000	746	48.556	-38.065	80580000	293	187	4.3	7.32	173800
3100-04-7	1-Methylcyclopropene	298	1000	4	504000	327	19.928	13.88	-9150000	96	148	-52.9	7.73	257900
6142-73-0	Methylenecyclopropane	298	1000	4	1187000	392	35.045	-10.565	16200000	33	237	-367.4	4.77	216300
40529-13-3	1,3-Butadiene-2,3-d2	50	1500	4	191000	294	63.106	-61.502	176590000	366	98	0.9	7.71	116100
10545-58-1	1,3-Butadiene-1,1,4,4-d4	50	1500	4	208000	285	62.785	-63.446	156800000	368	87	-0.1	7.88	108300
1441-56-1	1,3-Butadiene-d6	50	1500	4	224000	283	60.689	-59.663	111210000	309	92	-1.4	8.07	100200
123-73-9	(E)-2-Butenal (Crotonaldehyde)	50	1500	4	236000	261	41.736	-19.201	14350000	352	45	7.2	9.49	-88000
78-94-4	Butenone	298	1000	4	714000	275	26.059	6.971	-4330000	74	154	-128.9	7.59	-113700
1191-95-3	Cyclobutanone	50	1500	4	57000	182	78.542	-93.077	439540000	583	82	8.9	9.05	-81900
1708-29-8	2,5-Dihydrofuran	50	1500	0	127000	126	100.086	-118.241	718280000	699	5	113.2	21.7	-89300
598-26-5	Dimethyl ketene (2-Methyl-1-propen-1-one)	50	1500	4	322000	322	40.922	-18.971	7700000	451	5	0.1	8.87	-109000
3068-88-0	3-Butanolyde	298	1000	4	3653000	667	0.865	59.86	-66250000	159	102	251.5	12.09	
96-48-0	4-Butanolyde	298	1000	4	362000	182	37.884	-4.391	2740000	85	171	-562.7	3.58	
107-93-7	(E)-2-Butenoic acid	50	1500	4	241000	234	35.619	-2.454	-2060000	211	61	8.2	10.68	-360000
108-05-4	Ethenyl ethanoate	298	1000	4	219000	198	29.254	9.552	-11700000	180	79	-97.2	9.1	-296400
108-24-7	Acetic anhydride	298	1000	4	17646000	967	0.79	74.979	-84150000	111	191	-1907.5	20.98	-575700
108-32-7	4-Methyl-1,3-dioxolan-2-one	298	1000	4	778000	462	20.988	29.853	-57490000	262	30	100.3	11.89	-528500
4399-47-7	Bromocyclobutane	298	700	4	1654000	400	119.513	1600.114	1793620000	447	198	-338.4	9.35	
1120-57-6	Chlorocyclobutane	50	3000	4	779000	275	76.303	-11.864	-28140000	233	84	243.5	15.54	
13279-85-1	1,1,1-Trichlorobutane	200	1500	4	1192000	302	36.656	1.453	-4410000	91	126	-115.8	13.45	-161300
666-16-0	Fluorocyclobutane	298	1000	4	5552000	1354	21.5	27.214	-34260000	244	55	64	9.99	
460-34-4	1,1,1-Trifluorobutane	200	1500	4	765000	268	39.248	0.105	-2850000	102	126	-168.8	10.85	-762400
109-74-0	Butanenitrile	50	1500	4	85000	164	75.715	-82.806	315680000	645	9	2.2	9.58	55700
78-82-0	2-Methylpropanenitrile	200	1500	4	1462000	433	55.214	-37.806	67110000	281	139	1.2	9.56	43700
616-45-5	2-Pyrrolidinone	298	1000	4	665000	450	29.985	15.66	-17990000	124	133	23.2	10.27	
106-98-9	1-Butene	50	3000	4	769000	377	45.63	-19.725	23960000	249	138	46.3	9.8	20400
624-64-6	(E)-2-Butene	50	3000	4	1076000	402	45.489	-19.954	19150000	270	142	10.4	7.96	9600
590-18-1	(Z)-2-Butene	50	3000	4	437000	301	46.71	-21.744	27080000	280	131	45	8.89	13900
287-23-0	Cyclobutane	50	1500	4	3332000	1382	5.734	29.951	1080000	35	53	5.7	6.92	53000
594-11-6	Methylcyclopropane	50	3000	4	925000	464	60.612	-44.352	107550000	304	148	3.2	8.41	47900
115-11-7	2-Methylpropene	50	3000	4	1018000	420	47.053	-22.387	28390000	290	130	10.1	8.06	4000
533-98-2	1,2-Dibromobutane	298	1000	4	161040000	1207	152.146	-157.68	380360000	184	12	-3729.2	8.26	-99200
541-33-3	1,1-Dichlorobutane	200	1500	4	728000	251	38.439	1.778	-2280000	105	126	-214.9	12.13	-146900
2358-38-5	1,1-Difluorobutane	200	1500	4	638000	249	39.815	0.285	-2780000	125	128	-197.1	10.63	-516500
53161-72-1	1,2-Diiodobutane	298	1000	4	136189000	1207	107.484	-95.139	266350000	159	31	-3214	16.31	11900
123-72-8	Butanal	273	1500	4	805000	253	39.864	4.449	-6900000	172	140	-192.5	7.44	-185600