CASRN	Chemical	Tmin	Tmax	a0	a1	a2	a3	a4	a5	a6	a7	I	J	Hf
108-20-3	Diisopropyl ether	298	1000	4	1856000	301	75.636	-19.168	19620000	162	153	-3867.6	7.46	-318800
111-43-3	Dipropyl ether	298	1000	4	1788000	294	75.677	-19.171	20030000	162	152	-3899.2	10.97	-292900
111-27-3	1-Hexanol	200	1500	4	1118000	268	53.385	10.839	-12460000	105	133	43.6	15.48	-276300
625-80-9	2,4-Dimethyl-3-thiapentane	273	1000	4	1865000	321	53.476	20.452	-8330000	88	139	-114.5	11.85	-101800
111-31-9	1-Hexanethiol	273	1000	4	2906000	384	95.136	-41.677	70610000	219	160	305.7	18.07	-92300
1679-06-7	2-Hexanethiol	273	1000	4	4053000	440	102.418	-76.275	108310000	230	176	251	17.96	-99400
1741-83-9	2-Thiaheptane	273	1000	4	1185000	228	58.341	0.52	-5070000	95	142	-297.5	10.29	-84300
638-46-0	3-Thiaheptane	273	1000	4	1925000	308	53.047	11.91	-11460000	69	160	0.4	15.22	-88800
111-47-7	4-Thiaheptane	273	1000	4	1748000	290	53.835	10.5	-9990000	70	158	-78.2	13.61	-87000
629-19-6	4,5-Dithiaoctane	273	1000	4	1760000	273	61.82	1.922	-5070000	90	139	-78.6	15.53	-78800
121-44-8	Triethylamine	298	1000	4	1101000	228	43.656	38.018	-24190000	96	125	-4120.8	5.77	-99600
434-64-0	Pentafluoro(Trifluoromethyl)benzene	298	1000	4	7285000	526	46.914	-2.467	-17420000	68	181	273.4	19.63	-1260600
4605-26-9	Perfluoroheptyl radical	50	3000	4	30294000	439	91.454	-36.12	41880000	44	22	56.4	26.87	-2922000
335-57-9	Perfluoroheptane	200	1500	4	20328000	1591	46.312	17.183	240000	33	30	-2467.4	28.46	-3364300
653-37-2	Pentafluorobenzaldehyde	298	500	4	500000	661	57.134	-25.737	10510000	70	25	-258.3	12.05	
65937-22-6	2,4,6-Heptatriynenitrile	50	1500	3.5	19405000	373	5.253	19.403	18140000	27	26	-1.5	10.85	811200
35851-93-5	2,4,6-Tribromobenzonitrile	300	1000	4	8139000	799	37.66	-3.128	10980000	60	48	91.8	17.69	
771-56-2	Methylpentafluorobenzene	298	1000	4	682000	91	-6.877	54.517	520000	19	23	-3501.3	-51.18	-830600
98-08-8	(Triflouromethyl)benzene	298	1000	4	56408000	1102	48.192	-5.7	68100000	110	47	-2687.6	14.23	-600000
100-47-0	Benzonitrile	298	1000	4	64802000	1118	63.753	-35.804	113820000	149	22	-2630	6.9	218800
103-71-9	Phenyl isocyanate	298	1000	4	7200000	777	26.546	14.207	8790000	50	46	-20.9	12.33	-6000
452-68-6	2-Fluoro-5-iodomethylbenzene	298	1000	4	8888000	723	27.437	15.718	10970000	44	50	-95.4	13.63	
13194-67-7	4-Fluoro-2-iodomethylbenzene	298	1000	4	7222000	694	28.17	14.649	10150000	48	44	-80.5	13.73	
100-52-7	Benzaldehyde	298	1000	4	10871000	984	25.216	16.01	9150000	54	56	5.4	11.76	-19200
65-85-0	Benzoic acid	298	1000	4	122116000	1269	95.922	-73.452	234140000	181	15	-2852.1	10.21	-290100
22904-44-5	2-Methylphenyl radical	50	3000	4	245000	255	43.561	-5.298	-13860000	215	92	1.8	11.23	328500
2396-02-3	4-Methylphenyl radical	50	3000	4	132000	225	43.696	-5.494	-14020000	223	86	16.5	11.29	324100
2154-56-5	Phenylmethyl	50	3000	4	275000	328	46.323	-9.017	-9480000	211	95	0	10.51	220300
95-52-3	2-Fluoromethylbenzene	298	1000	4	10990000	789	21.533	23.754	9750000	32	66	44.4	12.46	-95900
352-70-5	3-Fluoromethylbenzene	298	1000	4	8674000	805	24.035	20.725	9230000	45	54	-15.8	12.34	
352-32-9	4-Fluoromethylbenzene	298	1000	4	7105000	802	25.31	19.036	8730000	49	49	-38.4	11.38	-126100
121-46-0	Bicyclo[2.2.1]hepta-2,5-diene	298	1000	4	11374000	820	15.711	31.183	8140000	37	59	-104.3	8.66	270400
544-25-2	1,3,5-Cycloheptatriene	298	1000	4	10182000	709	15.266	31.21	9080000	31	59	-89.9	9.97	204300
108-88-3	Methylbenzene	50	1500	4	87000	204	34.095	17.743	-35740000	209	71	15.7	10.67	73300
95-48-7	2-Methylphenol	50	1500	4	612000	301	106.956	-111.584	328480000	432	84	0.4	11.37	-106300
108-39-4	3-Methylphenol	50	1500	4	45000	195	126.626	-145.332	749310000	633	19	18.4	12.87	-107900
106-44-5	4-Methylphenol	50	1500	4	36000	193	126.564	-146.365	769190000	652	12	17.7	12.07	-101100
583-61-9	2,3-Dimethylpyridine	50	1500	4	400000	263	46.999	7.335	-27810000	227	68	2.9	11.38	95100
108-47-4	2,4-Dimethylpyridine	50	1500	4	121000	186	44.649	11.322	-42030000	259	51	34.5	12.84	92200
589-93-5	2,5-Dimethylpyridine	50	1500	4	28000	127	35.992	25.681	-79260000	317	7	36.4	12.6	94600
108-48-5	2,6-Dimethylpyridine	50	1500	4	44000	156	35.085	27.291	-79680000	312	9	31.7	12.05	86900
583-58-4	3,4-Dimethylpyridine	50	1500	4	441000	270	47.008	7.537	-30150000	232	69	1.1	11.39	96800
591-22-0	3,5-Dimethylpyridine	50	1500	4	125000	189	45.224	10.365	-40630000	261	50	35.3	12.16	100900
100-71-0	2-Ethylpyridine	50	1500	4	193000	197	38.794	19.796	-47370000	225	60	10.1	12.49	106900
536-78-7	3-Ethylpyridine	50	1500	4	195000	198	38.618	20.209	-47630000	225	60	7.6	12.48	114100
536-75-4	4-Ethylpyridine	50	1500	4	218000	211	39.07	19.403	-46020000	220	64	15.1	12.1	110000
95-53-4	2-Methylaniline	50	3000	4	248000	259	55.037	-8.758	-9270000	232	69	12.2	11.84	84300
108-44-1	3-Methylaniline	50	3000	4	66000	177	53.985	-7.185	-14940000	250	58	28.7	12.61	83400
106-49-0	4-Methylaniline	50	3000	4	101000	204	54.05	-7.298	-13080000	240	63	29.5	11.93	84000
498-66-8	Bicyclo[2.2.1]hept-2-ene	298	1000	4	10778000	706	12.541	41.35	7880000	22	63	-131.5	9.45	122200
4054-38-0	1,3-Cycloheptadiene	298	1000	4	927000	250	53.02	-0.557	2810000	57	182	-623.9	4.69	123700
279-23-2	Bicyclo[2.2.1]heptane	298	1000	4	2717000	500	62.376	-2.673	1840000	56	216	-229.8	8.43	-20800
628-92-2	Cycloheptene	50	1500	4	1792000	462	48.73	18.961	-29950000	128	145	6.7	10.98	28800
765-47-9	1,2-Dimethylcyclopentene	298	1500	4	583981000	1115	114.771	-75.224	706100000	104	61	-329.8	9.23	
62184-82-1	1,3-Dimethylcyclopentene	298	1500	4	-351872000	568	4.745	55.475	-358240000	44	38	1095.6	23.28	
19550-48-2	1,4-Dimethylcyclopentene	298	1500	4	399522000	1236	144.787	-116.982	592050000	138	50	-475.7	9.98	
16491-15-9	1,5-Dimethylcyclopentene	298	1500	4	22834000	795	34.014	23.962	28180000	62	48	38.2	12.89	
58049-91-5	3,3-Dimethylcyclopentene	298	1500	4	389236000	840	71.582	-21.289	427840000	70	52	-522.5	7.94	
56039-55-5	cis-3,4-Dimethylcyclopentene	298	1500	4	299985000	802	54.345	-0.619	322750000	65	51	-421.9	9.85	
53225-40-4	trans-3,4-Dimethylcyclopentene	298	1500	4	964710000	698	67.469	-16.346	1003800000	55	46	-1963.7	-3.58	
30213-29-7	cis-3,5-Dimethylcyclopentene	298	1500	4	521717000	658	43.208	11.898	539680000	51	44	-1269.6	0.82	
61394-27-2	trans-3,5-Dimethylcyclopentene	298	1500	4	521717000	658	43.208	11.898	539680000	51	44	-1269.6	0.82	
628-71-7	1-Heptyne	200	1500	4	1101000	271	51.067	3.232	-7800000	117	124	42.7	12	131700
502-42-1	Cycloheptanone	50	1500	4	40000	132	39.815	39.081	-103300000	305	12	40.6	12.78	-208500
3922-26-7	1,1,1-Trichloroheptane	200	1500	4	2157000	298	66	3.692	-7970000	88	137	43	18.45	-208300
693-09-4	1,1,1-Trifluoroheptane	200	1500	4	1673000	278	66.511	3.384	-7370000	96	135	12.3	15.91	-809400
629-08-3	Heptanenitrile	200	1500	4	1653000	319	122.979	-107.334	259720000	357	113	19.5	16.37	6100
291-64-5	Cycloheptane	50	1500	4	-351000	207	47.794	15.482	12540000	87	16	0.2	10.92	-72900
1638-26-2	1,1-Dimethylcyclopentane	298	1500	4	250000	218	64.21	-1.764	-40850000	252	79	28.6	11.76	-94300
1192-18-3	cis-1,2-Dimethylcyclopentane	298	1500	4	373000	235	65.355	-3.451	-33200000	235	91	21.6	11.95	-86200
822-50-4	trans-1,2-Dimethylcyclopentane	298	1500	4	370000	236	65.133	-3.1	-34500000	238	89	23.1	12.06	-93300
2532-58-3	cis-1,3-Dimethylcyclopentane	298	1500	4	249000	217	67.501	-6.678	-28500000	252	81	29.2	12.57	-92100
1759-58-6	trans-1,3-Dimethylcyclopentane	298	1500	4	278000	221	68.321	-8.134	-26420000	250	84	28.4	12.49	-89900
1640-89-7	Ethylcyclopentane	50	3000	4	331000	212	65.909	-4.295	-31840000	236	91	34.9	12.68	-84200
592-76-7	1-Heptene	200	1500	4	5832000	520	58.762	3.03	-9560000	49	220	462.9	17.73	-26900
108-87-2	Methylcyclohexane	50	3000	4	1922000	440	77.796	-21.162	1560000	181	150	16.1	11.16	-110100
821-25-0	1,1-Dichloroheptane	200	1500	4	1651000	271	66.329	4.086	-6260000	98	136	-26	17.35	-194000
407-96-5	1,1-Difluoroheptane	200	1500	4	1465000	263	67.53	2.82	-6770000	110	135	-29	15.51	-563500
111-71-7	Heptanal	273	1500	4	462000	114	51.257	27.673	-59730000	248	45	-1031.3	-7.38	-228700
110-43-0	2-Heptanone	200	1000	4	1878000	314	58.527	7.773	-17590000	126	133	259.3	16	-264100
106-35-4	3-Heptanone	200	1000	4	2128000	329	57.043	13.516	-19340000	129	131	189.2	14.86	-262800
123-19-3	4-Heptanone	200	1000	4	2128000	329	57.043	13.516	-19340000	129	131	189.2	14.86	-262800
3356-67-0	Heptyl radical	200	3000	4	4537000	462	85.916	-32.571	33570000	152	190	553.4	18.83	41700
629-06-1	1-Chloroheptane	200	1500	4	1364000	254	66.703	4.471	-6220000	109	137	-65.1	14.66	-175700
661-11-0	1-Fluoroheptane	200	1500	4	1297000	249	67.928	2.983	-5870000	118	136	-76.5	13.45	-324900
590-35-2	2,2-Dimethylpentane	200	1500	4	160000	152	58.759	33.388	-30590000	239	40	19.4	10	-159900
565-59-3	2,3-Dimethylpentane	200	1500	4	1744000	471	76.352	0.045	-6120000	229	96	500.7	18.8	-147300
108-08-7	2,4-Dimethylpentane	200	1500	4	1606000	648	65.522	20.041	-46110000	321	18	320.1	14.64	-155800
562-49-2	3,3-Dimethylpentane	200	1500	4	2005000	410	67.776	19.458	-14900000	163	121	312.8	14.85	-155300
617-78-7	3-Ethylpentane	200	1500	4	1498000	301	66.654	8.785	-11450000	144	130	89.1	11.83	-145800
142-82-5	Heptane	200	1500	4	618000	197	53.954	25.747	-43090000	204	73	36.7	9.85	-145900
591-76-4	2-Methylhexane	200	1500	4	1177000	305	67.678	7.81	-10650000	165	113	283	14.99	-150400
589-34-4	3-Methylhexane	200	1500	4	1428000	346	66.542	9.71	-12770000	160	117	368.5	17.03	-146600
464-06-2	2,2,3-Trimethylbutane	200	1500	4	369000	397	122.69	-73.145	167150000	502	18	239	13.25	-157300
111-70-6	1-Heptanol	200	1500	4	1371000	270	62.374	9.992	-15190000	107	132	120.2	17.27	-285700
17348-59-3	Isopropyl 2,2-dimethylethyl ether	298	1000	4	4349000	453	52.336	40.409	-39410000	112	152	-3701.9	14.17	-358200
1639-09-4	1-Heptanethiol	273	1000	4	3822000	400	113.762	-63.035	97440000	220	167	439.5	20.61	-107600
628-00-2	2-Heptanethiol	273	1000	4	4901000	443	120.013	-96.366	133320000	228	179	376.6	20.39	-115100
20291-60-5	2-Thiaoctane	273	1000	4	1135000	194	72.047	-8.721	-1520000	109	135	-570.4	6.97	-23900
26158-99-6	3-Thiaoctane	273	1000	4	2105000	293	62.004	11.051	-12570000	69	158	-14.5	16.03	-24900
1613-46-3	4-Thiaoctane	273	1000	4	2105000	293	62.004	11.051	-12570000	69	158	-14.5	16.03	-102700
6060-61-3	Perfluorooctyl radical	50	3000	4	28519000	431	102.199	-38.201	40700000	44	21	81.7	29.88	-3331000
307-34-6	Perfluorooctane	200	1500	4	23715000	1590	53.837	18.895	-10000	39	28	-2739.8	32.03	-3773800
6165-96-4	1,3,5,7-Octatetrayne	50	1500	3.5	12006000	364	1.705	26.275	9980000	22	28	31	10.52	891800
536-74-3	Ethynylbenzene	298	1000	4	24053000	1637	48.166	-7.553	39210000	213	64	-2204.6	11.18	327300
2039-88-5	2-Bromoethenylbenzene	298	1000	4	16311000	802	24.915	23.573	12340000	31	71	175.2	16.18	
2039-86-3	3-Bromoethenylbenzene	298	1000	4	20338000	784	21.322	27.961	14550000	26	74	166.7	16.46	
2039-87-4	2-Chloroethenylbenzene	298	1000	4	14942000	816	29.515	18.222	14250000	51	55	90.4	14.62	
2039-85-2	3-Chloroethenylbenzene	298	1000	4	19158000	889	25.98	23.111	13520000	34	78	211	15.85	
394-46-7	2-Fluoroethenylbenzene	298	1000	4	23351000	927	21.395	29.237	13300000	25	89	225.7	15.11	
350-51-6	3-Fluoroethenylbenzene	298	1000	4	20929000	889	25.229	23.068	16340000	42	70	116.1	14.33	
1527-89-5	3-Methoxybenzonitrile	298	1000	4	235020000	1506	-174.268	528.916	-412110000	114	231	586.9	17.44	
874-90-8	4-Methoxybenzonitrile	298	1000	4	125780000	1378	-75.167	256.145	-125440000	17	252	620.7	17.43	
629-20-9	1,3,5,7-Cyclooctatetraene	298	1000	4	126000	226	12.842	35.363	1090000	14	55	-85	8.99	317600
24079-76-3	Tricyclo[3.3.0.0-2,8]octa-3,6-diene	298	1000	4	13641000	1014	24.046	27.014	8540000	84	34	-96.3	9.99	
38816-86-3	2,3-Diemthylphenyl	50	3000	4	422000	255	59.385	-14.803	-12000000	287	67	3.5	11.91	302200
38816-87-4	2,4-Dimethylphenyl	50	3000	4	177000	207	57.162	-11.329	-18170000	285	60	36.8	13.53	301600
38816-88-5	2,5-Dimethylphenyl	50	3000	4	132000	185	56.122	-9.73	-19640000	278	59	37.4	13.41	302600
38816-89-6	3,4-Dimethylphenyl	50	3000	4	422000	255	59.385	-14.803	-12000000	287	67	3.5	11.91	297200
38816-90-9	3,5-Dimethylphenyl	50	3000	4	177000	207	57.162	-11.329	-18170000	285	60	36.8	12.82	296600
500012-72-6	4-Ethylphenyl	50	3000	4	245000	216	52.78	-4.771	-21820000	232	76	13.3	12.59	309300
2348-48-3	(2-Methylphenyl)methyl	50	3000	4	424000	276	59.818	-14.853	-6820000	244	80	6.7	11.98	189700
2348-47-2	(3-Methylphenyl)methyl	50	3000	4	241000	237	59.624	-14.612	-8330000	252	74	23.1	12.84	191200
2348-52-9	(4-Methylphenyl)methyl	50	3000	4	241000	237	59.624	-14.612	-8330000	252	74	23.1	12.06	191600
2348-51-8	1-Phenylethyl	50	3000	4	447000	275	59.66	-14.508	-4450000	221	93	5.7	12.03	193500
17203-53-1	2-Phenylethyl	50	3000	4	177000	174	55.161	-8.24	-16510000	250	69	21.4	12.68	256300
95-47-6	1,2-Dimethylbenzene	50	2000	4	443000	267	61.872	-11.899	-12380000	274	71	1.7	10.71	46400
108-38-3	1,3-Dimethylbenzene	50	2000	4	160000	201	54.421	-0.12	-33130000	272	58	35.8	12.18	45900
106-42-3	1,4-Dimethylbenzene	50	2000	4	115000	177	53.172	1.821	-33950000	266	56	33.6	11.38	46800
100-41-4	Ethylbenzene	50	1500	4	195000	206	42.4	19.967	-45270000	222	62	15.2	12.09	58400
3725-31-3	(E,E)-1,3,5,7-Octatetraene	50	1500	4	271000	210	115.395	-114.988	305390000	484	39	11.6	11.2	257000
1871-50-7	(Z,Z)-1,3,5,7-Octatetraene	50	1500	4	242000	190	116.272	-115.895	321900000	491	38	13.6	11.53	265000
526-75-0	2,3-Dimethylphenol	50	1500	4	612000	337	46.886	18.977	-53620000	280	15	1.5	11.99	-129800
105-67-9	2,4-Dimethylphenol	50	1500	4	322000	214	56.108	3.671	-18140000	215	58	19.9	12.8	-134200
95-87-4	2,5-Dimethylphenol	50	1500	4	590000	264	52.735	8.861	-24700000	199	69	16.6	12.79	-132800
576-26-1	2,6-Dimethylphenol	50	1500	4	483000	261	59.549	-1.807	-13320000	217	66	22	12.77	-133600
95-65-8	3,4-Dimethylphenol	50	1500	4	721000	301	57.459	1.249	-10780000	189	73	1.8	12.77	-129000
108-68-9	3,5-Dimethylphenol	50	1500	4	278000	228	59.663	-2.096	-14030000	225	59	37.4	13.66	-132600
90-00-6	2-Ethylphenol	298	1500	4	10611000	661	65.598	-16.331	6750000	76	248	242.8	15.83	-116800
620-17-7	3-Ethylphenol	298	1500	4	11485000	690	65.608	-16.28	6530000	82	249	206.9	16.86	-116400
123-07-9	4-Ethylphenol	298	1500	4	11776000	695	66.733	-18.245	8380000	90	250	224.8	16.24	-114600
87-59-2	2,3-Dimethylaniline	50	3000	4	421000	263	69.542	-15.986	-1150000	245	65	15	12.33	61000
95-68-1	2,4-Dimethylaniline	50	3000	4	200000	216	69.51	-15.979	-3010000	260	55	30.9	13.11	57600
95-78-3	2,5-Dimethylaniline	50	3000	4	198000	216	69.172	-15.443	-3890000	260	55	41	13.07	57600
87-62-7	2,6-Dimethylaniline	50	3000	4	421000	263	69.542	-15.986	-1150000	245	65	15	11.63	58500
95-64-7	3,4-Dimethylaniline	50	3000	4	415000	264	69.254	-15.535	-1710000	244	65	16.2	12.39	59400
108-69-0	3,5-Dimethylaniline	50	3000	4	35000	124	64.33	-8.212	-24900000	291	33	40	13.05	56600
578-54-1	2-Ethylaniline	50	3000	4	275000	226	68.655	-14.753	-3900000	251	56	26.2	12.96	71200
587-02-0	3-Ethylaniline	50	3000	4	217000	208	64.774	-9.039	-15770000	245	59	28.2	13.85	69200
589-16-2	4-Ethylaniline	50	3000	4	252000	218	64.724	-8.995	-14870000	239	62	28.6	13.17	67700
1462-84-6	2,3,6-Trimethylpyridine	298	1000	4	4443000	319	-9.28	70.836	4160000	30	25	-191.6	11.05	58000
108-75-8	2,4,6-Trimethylpyridine	298	1000	4	4785000	328	-12.857	74.742	3870000	18	36	-287.4	10.53	54000
3806-59-5	cis,cis-1,3-Cyclooctadiene	298	1000	4	18316000	682	14.021	51.762	13710000	19	69	14.6	12.15	116200
1552-12-1	cis,cis-1,5-Cyclooctadiene	298	1000	4	9920000	627	29.25	33.109	13510000	38	48	-147.9	10.43	137900
931-89-5	trans-Cyclooctene	298	1000	4	30201000	480	0.793	70.98	28350000	24	44	-658.1	5.5	
765-90-2	endo-2-Methylbicyclo[2.2.1]heptane	298	1000	4	15877000	643	13.92	58.501	13390000	18	65	-159.5	10.3	-34200
872-78-6	exo-2-Methylbicyclo[2.2.1]heptane	298	1000	4	13160000	700	20.514	51.362	12070000	24	64	-77.7	11	-33800
629-05-0	1-Octyne	200	1500	4	1423000	279	58.719	4.681	-11880000	113	126	132.3	14	116000
502-49-8	Cyclooctanone	50	1500	4	329000	244	63.488	17.869	-60390000	246	65	7.5	12.96	-224900
4905-79-7	1,1,1-Trichlorooctane	200	1500	4	2460000	297	74.871	5.131	-9720000	88	138	107.1	20.18	-224000
53392-86-2	1,1,1-Trifluorooctane	200	1500	4	1987000	280	75.996	3.843	-8430000	95	137	72.7	17.62	-825100
124-12-9	Octanenitrile	200	1500	4	2058000	324	143.773	-127.603	311050000	356	116	122.8	18.56	-9600
292-64-8	Cyclooctane	50	1500	4	-277000	234	49.437	25.475	12510000	77	26	2.4	11.62	-72800
590-66-9	1,1-Dimethylcyclohexane	50	3000	4	583000	297	83.167	-14.038	-26100000	246	88	3.2	11.41	-129800
2207-01-4	cis-1,2-Dimethylcyclohexane	50	3000	4	841000	305	76.013	-3.277	-44330000	213	109	8.3	12.17	-121100
6876-23-9	trans-1,2-Dimethylcyclohexane	50	3000	4	758000	296	72.111	1.574	-53500000	207	102	3.5	11.54	-129300
638-04-0	cis-1,3-Dimethylcyclohexane	50	3000	4	762000	296	74.539	-1.748	-51710000	218	102	2.6	11.58	-133900
2207-03-6	trans-1,3-Dimethylcyclohexane	50	3000	4	782000	299	77.31	-5.708	-45690000	221	104	4.2	12.18	-125700
624-29-3	cis-1,4-Dimethylcyclohexane	50	3000	4	843000	303	78.1	-6.068	-33690000	211	109	6.1	11.49	-125900
2207-04-7	trans-1,4-Dimethylcyclohexane	50	3000	4	1725000	373	93.582	-30.365	11700000	183	148	16.8	11.12	-133900
1678-91-7	Ethylcyclohexane	50	3000	4	502000	271	85.139	-17.367	-17940000	262	77	6.3	12.44	-122000
111-66-0	1-Octene	200	1500	4	7159000	525	65.645	6.009	-13680000	40	222	618.5	20.44	-42700
2040-96-2	Propylcyclopentane	50	3000	4	508000	223	77.64	-7.558	-30790000	241	85	34.6	13.74	-100200
20395-24-8	1,1-Dichlorooctane	200	1500	4	1976000	276	74.83	6.149	-8730000	97	137	52.5	19.26	-209600
61350-03-6	1,1-Difluorooctane	200	1500	4	1751000	266	76.195	4.588	-8840000	107	136	32.8	17.22	-579200
124-13-0	Octanal	273	1500	4	417000	84	52.656	39.414	-90460000	275	22	-1876.1	-28.75	-144400
111-13-7	2-Octanone	200	1000	4	2138000	309	67.407	6.805	-19990000	123	133	332.1	17.75	-279700
106-68-3	3-Octanone	200	1000	4	2440000	325	65.744	12.805	-21580000	123	133	268.3	16.7	-278400
589-63-9	4-Octanone	200	1000	4	2440000	325	65.744	12.805	-21580000	123	133	268.3	16.7	-278400
4606-96-6	Octyl radical	200	3000	4	5212000	456	97.288	-35.167	33630000	144	190	674.6	21.24	25900
111-85-3	1-Chlorooctane	200	1500	4	1611000	255	75.647	5.778	-7830000	107	137	-16.9	16.18	-191700
463-11-6	1-Fluorooctane	200	1500	4	1570000	253	76.979	4.111	-7360000	114	137	-19.7	15.08	-340600
590-73-8	2,2-Dimethylhexane	200	1500	4	478000	203	75.634	19.697	-21180000	219	66	102.9	12.09	-173900
584-94-1	2,3-Dimethylhexane	200	1500	4	1993000	470	69.237	25.849	-38590000	209	82	646.3	21.37	-161900
589-43-5	2,4-Dimethylhexane	200	1500	4	1578000	415	83.651	1.55	-6780000	222	81	519.7	19.55	-168000
592-13-2	2,5-Dimethylhexane	200	1500	4	2395000	424	72.234	19.935	-24860000	164	115	525	18.9	-170900
563-16-6	3,3-Dimethylhexane	200	1500	4	640000	271	88.233	-1.923	8290000	203	83	337.2	16.56	-168400
583-48-2	3,4-Dimethylhexane	200	1500	4	2729000	526	71.303	23.233	-34400000	202	93	703.8	22.17	-160200
800000-17-3	(3R,4S)-Dimethylhexane	200	1500	4	4421000	674	58.053	47.371	-110020000	294	43	684.5	21.22	-160300
800000-16-2	(3RS,4RS)-Dimethylhexane	200	1500	4	2622000	514	71.511	22.413	-31950000	194	97	695.8	21.5	-160100
619-99-8	3-Ethylhexane	200	1500	4	868000	220	81.044	-0.418	-7340000	191	95	-2.5	12.09	-161800
609-26-7	3-Ethyl-2-methylpentane	200	1500	4	2122000	416	89.551	-8.19	-4980000	248	89	479.4	18.29	-162100
1067-08-9	3-Ethyl-3-methylpentane	200	1500	4	401000	414	77.731	18.513	-44940000	313	18	424.6	15.98	-163200
592-27-8	2-Methylheptane	200	1000	4	960000	293	63.284	29.234	-47730000	210	69	460.1	13.16	-166200
589-81-1	3-Methylheptane	200	1500	4	740000	303	61.391	33.45	-62380000	248	45	509.6	19.57	-162900
589-53-7	4-Methylheptane	200	1500	4	737000	308	63.91	28.073	-52330000	236	51	515.8	18.96	-162100
111-65-9	Octane	200	1500	4	722000	189	67.065	17.357	-38530000	198	79	10.4	10.03	-161900
594-82-1	2,2,3,3-Tetramethylbutane	200	1500	4	761000	299	116.324	-27.556	61820000	335	65	163.9	10.94	-172600
564-02-3	2,2,3-Trimethylpentane	200	1500	4	6265000	550	81.85	17.127	-15440000	136	170	468.8	17.5	-167100