CASRN	Chemical	Tmin	Tmax	a0	a1	a2	a3	a4	a5	a6	a7	I	J	Hf
540-84-1	2,2,4-Trimethylpentane	200	1500	4	6098000	520	79.575	18.836	-19860000	119	178	318.1	16.09	-171600
560-21-4	2,3,3-Trimethylpentane	200	1500	4	6223000	559	84.397	11.698	-20630000	163	159	502.9	18.14	-165600
565-75-3	2,3,4-Trimethylpentane	200	1500	4	4788000	567	85.093	6.46	-25480000	238	107	564.2	18.69	-164900
6863-58-7	sec-Butyl ether	298	1000	4	2058000	250	88.186	-6.425	11210000	105	158	-5351.1	4.32	-360700
142-96-1	Dibutyl ether	298	1000	4	2076000	252	87.994	-6.086	10820000	105	158	-5328.7	9.14	-333900
111-87-5	1-Octanol	200	1500	4	1826000	288	68.547	13.777	-20940000	101	135	247.9	19.78	-306800
111-88-6	1-Octanethiol	273	1000	4	4719000	410	132.163	-83.916	124930000	220	172	564.4	23.07	-123300
3001-66-9	2-Octanethiol	273	1000	4	5735000	445	137.251	-115.978	156250000	226	181	505.7	22.84	-130700
20291-61-6	2-Thianonane	273	1000	4	1232000	189	78.006	-4.334	-7750000	110	129	-605.9	7	-27600
7309-44-6	3-Thianonane	273	1000	4	2439000	293	70.617	10.742	-14950000	69	158	32	17.57	-28700
42841-80-5	4-Thianonane	273	1000	4	1993000	257	73.824	5.122	-10680000	75	153	-203.4	14.6	-118300
544-40-1	5-Thianonane	273	1000	4	1993000	257	73.824	5.122	-10680000	75	153	-203.4	13.91	-119200
629-45-8	5,6-Dithiadecane	273	1000	4	2378000	272	80.237	-0.61	-7730000	83	145	-50.2	17.87	-110000
6060-62-4	Perfluorononyl radical	50	3000	4	36471000	423	117.757	-45.742	51000000	43	21	45	32.45	-3741000
375-96-2	Perfluorononane	200	1500	4	26895000	1594	61.637	20.286	-210000	44	26	-3023.7	35.42	-4183200
67483-72-1	2,4,6,8-Nonatetraynenitrile	50	1500	3.5	34889000	384	10.141	21.103	33760000	29	26	26	12.74	1038000
95-13-6	Indene	298	1000	4	15000000	640	20.466	31.818	14360000	28	55	-217.4	9.99	187100
496-11-7	Indane	298	1000	4	9339000	631	22.009	37.145	9920000	22	59	-116.3	11.26	91400
611-15-4	(2-Methylphenyl)ethene	50	1500	4	2012000	369	19.071	37.083	6130000	64	4	7.7	12.33	146800
100-80-1	(3-Methylphenyl)ethene	50	1500	4	1902000	375	18.667	37.792	5840000	65	4	10.6	12.39	143700
622-97-9	(4-Methylphenyl)ethene	50	1500	4	3294000	381	21.343	34.651	8440000	63	6	11.2	12.39	142900
873-66-5	(E)-1-Phenyl-1-propene	50	1500	4	3515000	387	20.691	35.525	8070000	60	9	0.6	12.03	144100
766-90-5	(Z)-1-Phenyl-1-propene	50	1500	4	38819000	344	0.338	55.852	41430000	29	22	21	12.89	148900
98-83-9	2-Phenyl-1-propene	50	1500	4	14680000	401	20.205	35.259	19560000	41	21	26.5	12.88	147000
1641-41-4	4-Indanol	50	1500	4	221000	227	54.526	11.786	-36980000	215	64	5.4	14.52	-87700
1470-94-6	5-Indanol	50	1500	4	224000	233	52.749	14.52	-42190000	213	65	6.1	14.56	-87500
611-14-3	1-Ethyl-2-methylbenzene	50	1500	4	522000	246	60.779	7.683	-37880000	249	63	0	12.86	31700
620-14-4	1-Ethyl-3-methylbenzene	50	1500	4	295000	208	56.745	13.395	-48220000	250	57	34.1	14.33	31200
622-96-8	1-Ethyl-4-methylbenzene	50	1500	4	235000	192	55.272	15.647	-49930000	249	53	31.3	13.53	32000
98-82-8	(1-Methylethyl)benzene	50	1500	4	236000	213	52.496	17.808	-21210000	165	72	13.2	13.07	38400
103-65-1	Propylbenzene	50	1500	4	418000	229	50.227	20.758	-48410000	211	66	14.8	13.47	41300
526-73-8	1,2,3-Trimethylbenzene	50	1500	4	140000	164	68.446	-4.74	-12490000	266	48	11.5	11.71	24300
95-63-6	1,2,4-Trimethylbenzene	50	1500	4	274000	196	59.851	8.181	-51810000	272	50	13	12.54	19700
108-67-8	1,3,5-Trimethylbenzene	50	1500	4	122000	158	61.018	6.562	-66310000	335	20	31.5	11.48	17900
3452-09-3	1-Nonyne	200	1500	4	1848000	294	64.897	8.564	-18210000	109	128	264	16.46	100300
1071-84-7	1,1,1-Trichlorononane	200	1500	4	2777000	297	83.803	6.475	-11480000	88	139	174.4	21.96	-239700
55757-34-1	1,1,1-Trifluorononane	200	1500	4	2287000	281	84.873	5.274	-10150000	94	138	134.3	19.33	-840800
2243-27-8	Nonanenitrile	200	1500	4	2405000	324	165.264	-148.843	369490000	358	117	215.8	20.62	-25400
2040-95-1	Butylcyclopentane	50	3000	4	685000	229	88.682	-9.649	-30530000	242	81	34.5	15.15	-115500
124-11-8	1-Nonene	200	1500	4	4740000	411	73.888	5.377	-11580000	42	198	445.9	20.07	-58200
1678-92-8	Propylcyclohexane	50	3000	4	672000	276	93.643	-18.563	-27130000	259	74	126.7	14.44	-138600
1795-27-3	1,cis-3,cis-5-Trimethylcyclohexane	298	1000	4	1525000	275	64.658	39.503	-36230000	95	144	-4072.3	6.07	-215400
1795-26-2	1,cis-3,trans-5-Trimethylcyclohexane	298	1000	4	6625000	568	56.286	60.802	-71160000	95	170	-3251.4	15.21	-206600
821-88-5	1,1-Dichlorononane	200	1500	4	2232000	274	84.444	6.375	-9340000	96	138	93	20.69	-225300
62127-42-8	1,1-Difluorononane	200	1500	4	2038000	268	85.32	5.619	-10300000	105	137	90.1	18.88	-594900
124-19-6	Nonanal	273	1500	4	643000	128	60.259	40.52	-88210000	247	38	-920.3	-3.35	-260000
821-55-6	2-Nonanone	200	1000	4	2006000	282	122.529	-94.77	63280000	240	119	336.5	18.55	-295300
925-78-0	3-Nonanone	200	1000	4	2731000	321	74.892	11.334	-23610000	120	134	344	18.55	-294100
4485-09-0	4-Nonanone	200	1000	4	2716000	320	75.092	11.012	-23210000	120	134	339.4	18.44	-294100
32757-65-6	Nonyl radical	200	3000	4	5876000	451	109.712	-39.465	37060000	140	190	792.8	23.62	10200
2473-01-0	1-Chlorononane	200	1500	4	2008000	266	85.1	6.258	-8770000	102	141	70.1	18.29	-207600
463-18-3	1-Fluorononane	200	1500	4	2103000	275	83.911	8.487	-11730000	103	143	122.3	17.95	-356300
1067-20-5	3,3-Diethylpentane	200	1500	4	1390000	387	85.575	19.349	-55270000	288	40	452.6	14.45	-176700
1071-26-7	2,2-Dimethylheptane	200	1500	4	273000	126	84.256	19.412	-35820000	257	40	-154.2	7.34	-190400
3074-71-3	2,3-Dimethylheptane	200	1500	4	1073000	419	79.093	23.082	-59080000	271	40	729.6	23.32	-179200
2213-23-2	2,4-Dimethylheptane	200	1500	4	1146000	436	81.416	19.207	-39380000	257	40	637.4	21.76	-184600
2216-30-0	2,5-Dimethylheptane	200	1500	4	1108000	423	78.938	23.07	-59550000	271	40	691.6	23.49	-183700
1072-05-5	2,6-Dimethylheptane	200	1500	4	2275000	375	86.747	8.299	-13990000	153	119	561.4	20.4	-186200
4032-86-4	3,3-Dimethylheptane	200	1500	4	846000	307	80.325	26.254	-31730000	216	61	506.4	19.59	-185100
922-28-1	3,4-Dimethylheptane	200	1500	4	2580000	451	86.606	9.56	-20780000	181	106	806	24.84	-176300
800000-19-5	(3RS,4RS)-Dimethylheptane	200	1500	4	2488000	439	86.355	9.976	-17800000	170	111	780.8	24.07	-176100
800000-18-4	(3RS,4SR)-Dimethylheptane	200	1500	4	2145000	580	81.193	19.911	-62160000	284	40	797.7	24.16	-176300
926-82-9	3,5-Dimethylheptane	200	1500	4	2630000	424	91.756	1.661	-12630000	193	104	662.3	22.28	-182400
800000-21-9	(3RS,5RS)-Dimethylheptane	200	1500	4	2582000	425	93.929	-1.664	-9990000	204	100	652.5	21.5	-182400
800000-20-8	(3RS,5SR)-Dimethylheptane	200	1500	4	2565000	420	90.395	3.656	-13360000	185	106	633.3	21.7	-182100
1068-19-5	4,4-Dimethylheptane	200	1500	4	232000	245	76.328	30.262	-28320000	218	40	486.1	18.59	-184100
16747-32-3	3-Ethyl-2,2-dimethylpentane	200	1500	4	343000	226	89.165	17.479	-36910000	280	40	336	17.06	-172900
16747-33-4	3-Ethyl-2,3-dimethylpentane	200	1500	4	6163000	625	69.432	55.742	-109640000	263	71	771.9	20.61	-175900
1068-87-7	3-Ethyl-2,4-dimethylpentane	200	1500	4	1192000	454	86.312	17.365	-44680000	283	40	542.2	21.02	-169500
15869-80-4	3-Ethylheptane	200	1500	4	550000	204	61.718	46.768	-100760000	287	15	155.3	14.7	-177600
2216-32-2	4-Ethylheptane	200	1500	4	1321000	265	78.477	17.739	-26320000	167	97	265.2	16.45	-177700
16789-46-1	3-Ethyl-2-methylhexane	200	1500	4	2164000	487	67.722	44.024	-112510000	313	18	579.8	20.97	-178700
3074-76-8	3-Ethyl-3-methylhexane	200	1500	4	178000	293	82.255	24.346	-35080000	271	22	595	18.97	-174700
3074-77-9	3-Ethyl-4-methylhexane	200	1500	4	1547000	305	97.612	-8.378	3950000	198	97	292.4	17.72	-183400
3074-75-7	4-Ethyl-2-methylhexane	200	1500	4	1410000	298	97.445	-7.993	3090000	205	91	58.1	16.85	-179000
3221-61-2	2-Methyloctane	200	1500	4	1546000	290	81.035	12.864	-22760000	154	110	452.5	18.63	-181700
2216-33-3	3-Methyloctane	200	1500	4	1324000	300	78.535	17.644	-34300000	185	89	566.7	21.07	-146600
2216-34-4	4-Methyloctane	200	1500	4	2658000	364	80.691	13.162	-19880000	121	137	566.7	21.24	-180400
111-84-2	Nonane	200	1500	4	493000	155	54.801	52.27	-120580000	286	13	-59.8	8.88	-177000
7154-79-2	2,2,3,3-Tetramethylpentane	200	1500	4	2367000	446	99.312	13.673	-2940000	214	96	566.7	17.37	-178400
1186-53-4	2,2,3,4-Tetramethylpentane	200	1500	4	6417000	549	164.171	-112.574	271680000	362	138	538.6	19.55	-175500
1070-87-7	2,2,4,4-Tetramethylpentane	200	1500	4	442000	208	93.673	23.27	-24340000	279	40	-69.2	9.84	-184100
16747-38-9	2,3,3,4-Tetramethylpentane	200	1500	4	5940000	670	89.273	26.618	-100950000	343	43	599.3	17.65	-178000
16747-25-4	2,2,3-Trimethylhexane	200	1500	4	1389000	363	98.663	1.359	1710000	212	90	582.1	19.46	-183500
16747-26-5	2,2,4-Trimethylhexane	200	1500	4	1554000	333	98.55	1.028	340000	198	102	366	18.3	-185200
3522-94-9	2,2,5-Trimethylhexane	200	1500	4	1789000	354	91.445	12.128	-9190000	174	109	412.6	18.22	-195100
16747-28-7	2,3,3-Trimethylhexane	200	1500	4	2217000	620	88.118	20.729	-40050000	282	40	650.1	20.59	-181000
921-47-1	2,3,4-Trimethylhexane	200	1500	4	5617000	629	82.968	22.978	-85300000	288	66	785.4	23.24	-177800
800000-23-1	2,(3RS,4RS)-Trimethylhexane	200	1500	4	4640000	560	93.491	4.223	-30320000	236	98	754.3	22.71	-177200
800000-22-0	2,(3RS,4SR)-Trimethylhexane	200	1500	4	6457000	627	77.896	32.013	-100490000	278	74	773.2	22.48	-177800
1069-53-0	2,3,5-Trimethylhexane	200	1500	4	4843000	666	73.926	40.992	-99430000	301	40	668	22.56	-184000
16747-30-1	2,4,4-Trimethylhexane	200	1500	4	1778000	385	96.524	4.979	-5540000	206	93	477.5	19.91	-181800
16747-31-2	3,3,4-Trimethylhexane	200	1500	4	5900000	703	68.536	56.75	-123420000	302	40	738.8	22.18	-176800
143-08-8	1-Nonanol	200	1500	4	2152000	292	75.528	16.532	-25180000	99	135	343.2	21.81	-326100
1455-21-6	1-Nonanethiol	273	1000	4	5583000	417	149.956	-104.209	149870000	220	175	696.7	25.57	-138900
13281-11-3	2-Nonanethiol	273	1000	4	6573000	446	155.245	-136.145	184220000	225	183	626.2	25.22	-146400
3698-95-1	2-Thiadecane	273	1000	4	1608000	205	89.392	-9.518	-5660000	100	138	-553.3	9.17	-31300
24768-44-3	3-Thiadecane	273	1000	4	2484000	274	82.192	5.335	-13770000	74	155	-46.1	17.53	-32400
24768-43-2	4-Thiadecane	273	1000	4	2495000	275	82.061	5.567	-13970000	74	155	-35.8	17.65	-134000
24768-42-1	5-Thiadecane	273	1000	4	2495000	275	82.061	5.567	-13970000	74	155	-35.8	17.65	-134800
4748-25-8	Perfluorodecyl radical	50	3000	4	36849000	424	128.004	-47.318	51870000	43	21	116.8	35.98	-4150000
307-45-9	Perfluorodecane	200	1500	4	30057000	1597	69.58	21.581	-470000	49	24	-3309.4	38.76	-4592600
32597-32-3	1,3,5,7,9-Decapentayne	50	1500	3.5	14877000	348	2.677	31.977	12580000	21	27	36.1	12.12	1108500
83-53-4	1,4-Dibromonaphthalene	298	1000	4	18052000	822	43.75	9.411	20200000	56	51	-21.4	13.78	
13214-70-5	2,3-Dibromonaphthalene	298	1000	4	19619000	783	41.728	11.62	20630000	46	57	66.8	16.66	
1825-31-6	1,4-Dichloronaphthalene	298	1000	4	18052000	822	43.75	9.411	20200000	56	51	-21.4	13.78	
90-11-9	1-Bromonaphthalene	298	1000	4	16336000	782	38.488	15.448	18210000	50	51	-39.5	14.07	
580-13-2	2-Bromonaphthalene	298	1000	4	18940000	718	35.68	18.264	20240000	43	52	-85.5	13.69	
90-13-1	1-Chloronaphthalene	298	1000	4	16179000	822	38.981	15.05	17860000	55	49	-87	12.81	140100
91-58-7	2-Chloronaphthalene	298	1000	4	16206000	739	36.543	17.437	17960000	46	50	-120.9	12.52	157800
321-38-0	1-Fluoronaphthalene	298	1000	4	16835000	822	37.293	17.182	17930000	54	49	-126.2	11.9	
323-09-1	2-Fluoronaphthalene	298	1000	4	35854000	987	38.819	17.39	31970000	69	60	-0.5	13.16	
90-14-2	1-Iodonaphthalene	298	1000	4	17673000	783	38.877	15.024	19510000	50	52	-256.1	11.37	256800
612-55-5	2-Iodonaphthalene	298	1000	4	17482000	777	37.691	16.445	18740000	47	54	-1.1	15.11	256000
275-51-4	Bicyclo[5.3.0]decapentaene (Azulene)	298	1000	4	77781000	1066	87.869	-46.124	137700000	144	16	-3036.2	5.45	279900
91-20-3	Naphthalene	50	1500	4	333000	303	46.009	14.504	-29670000	160	92	-3	10.7	174200
880-72-8	Naphthalene-1,4,5,8-d4	50	1500	4	381000	304	56.662	-2.496	-14580000	160	94	-3.5	10.85	156500
881-58-3	Naphthalene-2,3,6,7-d4	50	1500	4	351000	297	56.631	-2.403	-14540000	161	93	-5	10.86	156800
1146-65-2	Naphthalene-d8	50	1500	4	404000	301	68.378	-21.481	2310000	166	94	-5	10.92	139200
90-15-3	1-Naphthalenol	50	1500	4	369000	284	51.585	9.239	-24730000	166	82	10.2	13.38	-4700
135-19-3	2-Naphthalenol	50	1500	4	342000	288	50.159	11.476	-30080000	172	79	-0.5	13.41	-4400
447-53-0	1,2-Dihydronaphthalene	298	1000	4	530000	289	52.672	17.624	-23870000	138	108	-38.6	12.5	174000
612-17-9	1,4-Dihydronaphthalene	298	1000	4	15227000	587	21.351	41.596	15180000	23	56	-235.7	10.31	168000
119-64-2	1,2,3,4-Tetrahydronaphthalene	50	1500	4	9209000	374	11.159	57.061	12870000	41	19	3.3	12.38	63500
104-51-8	Butylbenzene	200	1500	4	1072000	253	72.169	4.28	-15550000	137	125	-39.9	13.37	24900
135-01-3	1,2-Diethylbenzene	298	1000	4	3507000	447	146.559	-139.644	332470000	371	129	-3540.2	17.24	-19000
141-93-5	1,3-Diethylbenzene	298	1000	4	2948000	417	140.427	-126.714	262650000	328	137	-3508	17.73	-21800
105-05-5	1,4-Diethylbenzene	298	1000	4	77078000	990	44.57	33.164	71370000	64	72	-3259	19.45	-22300
488-23-3	1,2,3,4-Tetramethylbenzene	298	1000	4	73299000	562	17.456	59.002	72710000	39	42	-4267.7	9.28	-41800
527-53-7	1,2,3,5-Tetramethylbenzene	298	1000	4	214181000	609	8.925	71.365	208230000	42	45	-4769.1	5.77	-44700
95-93-2	1,2,4,5-Tetramethylbenzene	298	1000	4	966000	261	149.413	-141.036	376300000	468	56	-4139.7	9.72	-45300
493-01-6	cis-Decaline	298	1000	4	13342000	712	142.752	-100.405	141540000	230	229	152.3	14.37	-108500
493-02-7	trans-Decaline	298	1000	4	13954000	731	214.319	190.789	1359580000	426	216	220.6	14.11	-121500
764-93-2	1-Decyne	200	1500	4	2157000	297	71.966	10.996	-23810000	110	127	362.9	18.53	84500
62108-56-9	1,1,1-Trichlorodecane	200	1500	4	3063000	295	93.458	6.652	-12180000	88	140	226.9	23.55	-255300
26288-16-4	1,1,1-Trifluorodecane	200	1500	4	2584000	282	94.137	6.086	-11460000	94	139	195.2	21.01	-856400
1975-78-6	Decanenitrile	200	1500	4	2681000	321	186.822	-170.419	429070000	362	116	304.1	22.61	-41100
1678-93-9	Butylcyclohexane	50	3000	4	866000	280	103.981	-22.715	-31110000	256	74	247	16.77	-154200
872-05-9	1-Decene	200	1500	4	7437000	472	81.793	7.259	-15830000	33	213	739.3	24.19	-73900
3741-00-2	Pentylcyclopentane	50	3000	4	877000	234	99.85	-11.933	-29570000	241	79	36.5	16.52	-131200
3162-62-7	1,1-Dichlorodecane	200	1500	4	2472000	272	94.375	6.122	-9930000	97	138	136.2	22.15	-241000
62127-43-9	1,1-Difluorodecane	200	1500	4	2220000	264	94.529	6.536	-12030000	107	135	131.8	20.26	-610500
112-31-2	Decanal	273	1400	4	1671000	210	86.411	10.062	-25570000	128	122	-325.4	10.21	-275700
693-54-9	2-Decanone	200	1000	4	836000	210	64.423	33.38	-134510000	297	10	297.6	17.64	-311000
928-80-3	3-Decanone	200	1000	4	3092000	321	82.16	13.64	-26750000	113	136	429.6	20.48	-309700
624-16-8	4-Decanone	200	1000	4	3171000	324	82.437	13.128	-26210000	111	138	434.4	20.56	-309700
49765-51-7	Decyl radical	200	3000	4	6506000	446	120.382	-40.913	35750000	133	190	907	25.96	-5500
1002-69-3	1-Chlorodecane	200	1500	4	2292000	268	93.931	7.759	-10720000	101	141	134	20.01	-223600
334-56-5	1-Fluorodecane	200	1500	4	2111000	258	94.964	6.572	-10570000	109	138	92.7	18.35	-371900
124-18-5	Decane	200	1500	4	2880000	313	87.438	10.758	-21990000	97	150	457.8	18.71	-192700
17302-02-2	3,3-Diethylhexane	200	1500	4	10788000	561	90.898	24.595	-35900000	97	193	664	19.14	-190500
19398-77-7	3,4-Diethylhexane	200	1500	4	8718000	520	89.216	22.713	-45260000	134	167	644.1	21.39	-189200
52897-16-2	3,3-Diethyl-2-methylpentane	200	1500	4	7023000	526	88.381	33.114	-31620000	104	169	714	21.78	-177100
13475-79-1	2,4-Dimethyl-3-(1-methylethyl)pentane	200	1500	4	1724000	467	93.546	24.103	-58620000	281	40	519.2	20.38	-174000
15869-87-1	2,2-Dimethyloctane	200	1500	4	7335000	486	91.134	21.635	-22170000	77	188	679.4	21.4	-206300
7146-60-3	2,3-Dimethyloctane	200	1500	4	16137000	660	76.601	44.425	-58550000	68	218	1075.9	27.72	-194900
4032-94-4	2,4-Dimethyloctane	200	1500	4	9957000	555	87.821	23.609	-31920000	89	188	799.9	24.7	-200600
15869-89-3	2,5-Dimethyloctane	200	1500	4	9461000	556	85.981	26.224	-36310000	89	187	850.3	26.33	-199500
2051-30-1	2,6-Dimethyloctane	200	1500	4	10121000	567	84.937	28.164	-38880000	86	191	874.7	26.57	-199300
1072-16-8	2,7-Dimethyloctane	200	1500	4	724000	327	80.738	34.097	-76540000	273	26	702.6	22.79	-202000
4110-44-5	3,3-Dimethyloctane	200	1500	4	2342000	343	95.084	13.523	-13710000	138	121	549.5	20.98	-200900
15869-92-8	3,4-Dimethyloctane	200	1500	4	15614000	662	76.833	44.338	-60770000	80	209	1077.6	28.59	-192200
800000-24-2	(3RS,4SR)-Dimethyloctane	200	1500	4	15608000	661	77.092	44.067	-62020000	83	208	1062.7	27.8	-192200
15869-93-9	3,5-Dimethyloctane	200	1500	4	4832000	454	93.916	11.497	-19360000	129	143	741.7	24.88	-198300
800000-27-5	(3RS,5RS)-Dimethyloctane	200	1500	4	2489000	411	92.345	14.479	-29100000	192	89	785	24.59	-198300
15869-94-0	3,6-Dimethyloctane	200	1500	4	14860000	648	78.055	41.819	-58310000	79	209	1005.3	28.01	-196800
800000-29-7	(3R,6S)-Dimethyloctane	200	1500	4	14860000	648	78.055	41.819	-58310000	79	209	1005.3	27.32	196800
15869-95-1	4,4-Dimethyloctane	200	1500	4	2303000	339	93.389	14.851	-7120000	112	128	487	20.33	-200400
15869-96-2	4,5-Dimethyloctane	200	1500	4	15941000	668	78.266	41.486	-60580000	84	208	1059.5	27.67	-192200
800000-31-1	(4R,5S)-Dimethyloctane	200	1500	4	15035000	655	78.744	40.457	-57950000	86	204	1026	26.75	-192200
800000-30-0	(4RS,5SR)-Dimethyloctane	200	1500	4	12121000	615	81.369	34.922	-47660000	87	194	970	26.49	-192000
20291-91-2	3-Ethyl-2,2-dimethylhexane	200	1500	4	1815000	321	97.437	15.386	-15250000	162	112	430.2	20	-188900
52897-00-4	3-Ethyl-2,3-dimethylhexane	200	1500	4	5002000	606	89.927	33.07	-79270000	273	59	878.7	23.48	-191100
7220-26-0	3-Ethyl-2,4-dimethylhexane	200	1500	4	10763000	586	85.253	33.896	-44190000	99	188	727	25.28	-182400
800000-44-6	(3RS)-Ethyl-2,(4RS)-dimethylhexane	200	1500	4	2214000	493	77.411	46.469	-90560000	267	40	699.6	24.31	-182300
800000-43-5	(3RS)-Ethyl-2,(4SR)-dimethylhexane	200	1500	4	2369000	505	78.789	44.728	-87370000	269	40	706.4	24.26	-182400
52897-04-8	3-Ethyl-2,5-dimethylhexane	200	1500	4	5021000	577	74.272	53.571	-134430000	296	40	733.6	23.68	-198800
52897-06-0	3-Ethyl-3,4-dimethylhexane	200	1500	4	6809000	600	89.477	34.419	-70050000	225	98	969.2	24.33	-188000
52896-99-8	4-Ethyl-2,2-dimethylhexane	200	1500	4	16633000	645	84.808	41.912	-58640000	69	232	765.7	22.37	-200200
52897-01-5	4-Ethyl-2,3-dimethylhexane	200	1500	4	4232000	534	76.24	49.821	-123460000	292	40	736.3	22.57	-192200
52897-03-7	4-Ethyl-2,4-dimethylhexane	200	1500	4	2769000	404	99.573	12.049	-15040000	167	113	589.8	21.53	-192500
52897-05-9	4-Ethyl-3,3-dimethylhexane	200	1500	4	6744000	513	92.636	25.263	-28420000	114	166	697	23.45	-182400
14676-29-0	3-Ethyl-2-methylheptane	200	1500	4	6646000	479	95.06	10.425	-24760000	122	166	680.6	23.44	-193500
17302-01-1	3-Ethyl-3-methylheptane	200	1500	4	9496000	549	91.27	22.694	-31170000	94	188	767.3	22.98	-195200
52896-91-0	3-Ethyl-4-methylheptane	200	1500	4	9689000	554	90.88	18.359	-39580000	119	179	791.2	24.82	-190600
52896-90-9	3-Ethyl-5-methyl heptane	200	1500	4	15139000	624	79.749	38.535	-54570000	70	218	861.4	25.13	-196500
800000-33-3	(4RS)-Ethyl-3-methylheptane	200	1500	4	6254000	491	93.178	13.747	-32750000	145	148	750.3	24.36	-190600
52896-88-5	4-Ethyl-2-methylheptane	200	1500	4	5316000	430	91.946	13.985	-17500000	99	162	477.4	21.06	-196500
52896-89-6	4-Ethyl-3-methylheptane	200	1500	4	6254000	491	93.178	13.747	-32750000	145	148	750.3	25.04	-190600
800000-32-2	(4SR)-Ethyl-3-methylheptane	200	1500	4	3151000	487	85.378	27.602	-80040000	265	55	827.1	25.08	-199200
17302-04-4	4-Ethyl-4-methylheptane	200	1500	4	2484000	365	92.103	16.77	-7910000	111	127	549.8	20.54	-190600
13475-78-0	5-Ethyl-2-methylheptane	200	1500	4	489000	229	88.172	21.822	-63860000	286	24	412.7	19.96	-194300
5881-17-4	3-Ethyloctane	200	1500	4	7652000	482	89.829	12.9	-24500000	74	194	765	23.57	-193300
15869-86-0	4-Ethyloctane	200	1500	4	6405000	450	90.842	10.553	-19920000	77	185	660.9	23.27	-193400