CASRN	Chemical	Tmin	Tmax	a0	a1	a2	a3	a4	a5	a6	a7	I	J	Hf
67-56-1	Methanol	50	3000	4	212000	392	20.921	-13.466	29080000	354	182	9.7	5.1	-190100
1455-13-6	Methanol-d1	298	1000	4	301000	418	19.97	-9.207	19640000	305	189	11.9	5.39	-193000
1849-29-2	Methanol-d3	298	1000	4	234000	367	19.127	-10.56	10690000	205	173	-10.1	5.58	-202400
811-98-3	Methanol-d4	298	1000	4	8062000	1905	14.31	2.697	-1910000	415	30	35.1	6.24	-206600
74-93-1	Methanethiol	50	3000	4	143000	317	20.526	-12.3	23440000	387	112	1.5	6.43	-12300
74-89-5	Methanamine	50	1500	4	374000	463	27.836	-19.547	56850000	399	157	1.7	5.25	-7800
3767-37-1	Aminomethane-d5	298	1500	4	336000	659	21.488	-7.828	-890000	304	82	63.2	6.63	
60-34-4	Hydrazinomethane	200	3000	4	9031000	1360	24.901	-6.596	-79700000	645	21	187.7	8.22	
57788-94-0	Beryllium carbide	100	2000	4	8412000	2175	-3.816	8.331	-1920000	66	31	-32.1	3.47	
594-73-0	Hexabromoethane	100	1500	4	455000	211	21.911	-3.645	-2860000	100	35	50.4	16.16	177200
79-38-9	Chlorotrifluoroethene	200	1500	4	1191000	947	17.942	-6.376	3450000	76	53	40.7	11.8	-502600
76-15-3	Chloropentafluoroethane	50	1500	4	207000	225	27.56	-12.323	430000	121	66	5.9	12.44	-1116000
79-35-6	1,1-Dichloro-2,2-difluoroethene	200	1500	4	1478000	732	17.127	-5.298	3060000	42	64	65.1	11.95	-333700
381-71-5	(E)-1,2-Dichloro-1,2-difluoroethene	200	1500	4	34000	731	17.498	-5.769	1770000	56	53	52.5	11.83	-350200
311-81-9	(Z)-1,2-Dichloro-1,2-difluoroethene	200	1500	4	270000	499	16.999	-5.128	1780000	21	76	85.8	12.17	-350100
374-07-2	1,1-Dichloro-1,2,2,2-tetrafluoroethane	50	5000	4	253000	231	27.823	-12.535	630000	111	67	7.6	12.93	-920100
76-14-2	1,2-Dichloro-1,1,2,2-tetrafluoroethane	50	1500	4	259000	224	25.935	-9.76	-1880000	107	68	10	12.28	-893900
79-37-8	Ethanedioylchloride	298	1000	4	8912000	792	22.567	-12.645	15530000	64	70	122.9	12.8	-336400
359-29-5	Trichlorofluoroethene	200	1500	4	176000	671	17.795	-6.169	1840000	66	43	36.4	12.92	-180400
354-58-5	1,1,1-Trichloro-2,2,2-trifluoroethane	50	1500	4	332000	238	27.317	-11.578	70000	104	68	7.5	12.22	-734900
76-13-1	1,1,2-Trichloro-1,2,2-trifluoroethane	50	1500	4	212000	229	24.98	-7.548	-1090000	99	56	34.7	14.81	-700000
127-18-4	Tetrachloroethene	200	1500	4	1667000	1806	15.252	-3.142	10000	111	10	-20.5	11.14	-11300
76-11-9	1,1,1,2-Tetrachloro-2,2-difluoroethane	50	1500	4	277000	231	26.318	-8.964	0	84	68	3.8	13.59	-513900
76-12-0	1,1,2,2-Tetrachloro-1,2-difluoroethane	50	1500	4	181000	185	27.854	-11.478	930000	91	61	14.9	13.23	-506300
7094-17-9	Pentachloroethyl	50	3000	4	383000	241	19.375	-4.906	-1290000	72	71	20	16.02	37800
354-56-3	Pentachlorofluoroethane	50	1500	4	374000	244	25.322	-7.424	-340000	68	70	4.8	13.97	-320700
67-72-1	Hexachloroethane	200	1500	4	373000	162	24.841	-6.733	10000	14	98	-292.1	7.76	-136500
116-14-3	Tetrafluoroethene	200	1500	4	14864000	1527	29.986	-24.999	46670000	224	32	1.6	9.26	-655200
3369-48-0	Perfluoroethyl radical	50	3000	4	129000	204	20.132	-5.942	-1620000	129	61	6.4	12.08	-885600
76-16-4	Perfluoroethane	50	3000	4	174000	221	24.132	-6.99	-2630000	120	65	7.6	10.16	-1334000
56591-82-3	Lanthanum carbide	100	2000	4	12211000	1320	5.024	-1.624	12580000	88	102	-52.7	7.01	
460-19-5	Cyanogen	298	1000	3.5	7710000	1102	16.979	-12.333	23600000	181	12	-1584.5	5.92	308900
12071-27-1	Silicon carbide (4)	150	2000	4	541000	1039	6.193	-3.339	2780000	100	109	-60.5	4.92	
359-10-4	2-Chloro-1,1-difluoroethene	200	1500	4	54022000	1225	19.892	-8.854	63880000	110	71	49.9	10.99	-327400
2837-86-7	(E)-1-Chloro-1,2-difluoroethene	200	1500	4	55086000	1162	17.423	-5.521	60550000	97	73	35.6	10.95	-332900
30860-28-7	(Z)-1-Chloro-1,2-difluoroethene	200	1500	4	58509000	1146	17.729	-5.966	64370000	95	72	47.5	10.99	-333500
354-25-6	1-Chloro-1,1,2,2-tetrafluoroethane	50	1500	4	211000	234	24.342	-7.618	-1890000	140	66	6.1	12.77	-894400
2837-89-0	2-Chloro-1,1,1,2-tetrafluoroethane	50	1500	4	177000	221	23.832	-6.876	-2340000	142	64	6.3	12.7	-915500
359-02-4	1,1-Dichloro-2-fluoroethene	200	1500	4	57373000	1062	19.402	-8.148	65240000	91	65	43.8	11.72	-163300
13245-54-0	(E)-1,2-Dichloro-1-fluoroethene	200	1500	4	46569000	1006	17.351	-5.449	51550000	85	62	49	11.75	-174200
13245-53-9	(Z)-1,2-Dichloro-1-fluoroethene	200	1500	4	43162000	1060	17.479	-5.705	48000000	89	66	50.2	11.8	-174000
812-04-4	1,1-Dichloro-1,2,2-trifluoroethane	50	1500	4	192000	216	25.863	-9.552	660000	133	63	8.5	13.26	-693900
354-23-4	1,2-Dichloro-1,1,2-trifluoroethane	50	1500	4	223000	233	23.85	-6.815	-1920000	123	67	7	13.35	-701600
306-83-2	2,2-Dichloro-1,1,1-trifluoroethane	50	1500	4	220000	229	24.425	-7.71	-2230000	138	65	5.5	12.53	-735300
79-01-6	Trichloroethene	200	1500	4	1916000	1139	15.722	-3.424	2950000	178	5	-25.1	11.43	-6200
354-12-1	1,1,1-Trichloro-2,2-difluoroethane	50	1500	4	330000	257	24.222	-6.459	-250000	110	70	2	12.94	-504100
354-15-4	1,1,2-Trichloro-1,2-difluoroethane	50	1500	4	200000	215	25.057	-8.262	0	115	64	9.8	14.84	-505300
354-21-2	1,2,2-Trichloro-1,1-difluoroethane	50	1500	4	267000	230	24.79	-8.069	-1540000	113	67	6.8	13.72	-523800
76-03-9	Trichlorethanoic acid	298	1000	4	1131549000	1363	-293.725	443.419	575770000	50	134	88.7	16.15	
23273-90-7	1,1,2,2-Tetrachloroethyl	50	3000	4	187000	193	18.327	-3.551	-160000	85	63	20.8	14.57	25400
23425-39-0	1,2,2,2-Tetrachloroethyl	50	3000	4	234000	225	17.208	-2.255	-1050000	56	71	7.9	13.66	54400
354-11-0	1,1,1,2-Tetrachloro-2-fluoroethane	50	1500	4	343000	255	23.537	-5.528	-740000	95	71	2.4	14.51	-315500
354-14-3	1,1,2,2-Tetrachloro-1-fluoroethane	50	1500	4	247000	216	25.856	-9.283	10000	104	65	9.5	14.2	-325800
76-01-7	Pentachloroethane	200	1500	4	2847000	450	23.508	-4.769	-610000	24	181	67.1	14.73	-139700
359-11-5	Trifluoroethene	200	1500	4	15175000	1786	25.214	-17.718	47220000	275	39	8.7	9.8	-485500
109088-08-6	1,1,2,2-Tetrafluoroethyl radical	50	3000	4	91000	194	20.152	-5.909	300000	162	56	5.6	12.6	-677200
40617-75-2	1,2,2,2-Tetrafluoroethyl radical	50	3000	4	7000	96	18.316	-3.42	-5320000	214	27	15.5	12.47	-678200
354-33-6	Pentafluoroethane	50	3000	4	179000	233	22.64	-4.984	-4810000	154	65	4.5	11.37	-1095000
74-86-2	Ethyne	50	3000	3.5	2878000	965	26.135	-35.457	756000000	1353	65	-0.5	3.52	228800
421-06-7	2-Bromo-1,1,1-trifluoroethane	298	1000	4	130870000	1471	39.88	-29.298	169760000	140	80	192.2	14.16	
2317-91-1	1-Chloro-1-fluoroethene	200	1500	4	17507000	1905	24.812	-16.628	53610000	262	65	0.7	9.46	-169300
460-16-2	1-Chloro-2-fluoroethene	298	1000	4	70148000	1473	19.186	-7.269	85720000	139	81	62.6	9.69	
2268-32-8	(E)-1-Chloro-2-fluoroethene	200	1500	4	26539000	1289	16.226	-3.694	33230000	127	63	22.7	9.43	-159800
2268-31-7	(Z)-1-Chloro-2-fluoroethene	200	1500	4	17172000	1363	12.906	1.008	17720000	129	69	28.6	9.77	-162700
421-04-5	1-Chloro-1,1,2-trifluoroethane	50	1500	4	196000	240	21.517	-3.164	-4380000	153	67	-357.1	11.69	-686400
431-07-2	1-Chloro-1,2,2-trifluoroethane	50	1500	4	186000	248	21.54	-3.195	-4320000	160	68	3.3	13.79	-689200
75-88-7	2-Chloro-1,1,1-trifluoroethane	50	1500	4	138000	222	20.888	-2.309	-6140000	162	64	2.6	11.29	-737200
75-35-4	1,1-Dichloroethene	200	1500	4	3713000	1389	18.249	-6.685	12470000	216	49	-0.1	9.6	8400
156-60-5	(E)-1,2-Dichloroethene	200	1500	4	15055000	1240	16.877	-4.633	22510000	146	42	9.5	9.38	5000
156-59-2	(Z)-1,2-Dichloroethene	200	1500	4	2511000	1326	23.106	-15.488	31900000	396	17	9	9.71	3200
1842-05-3	1,1-Dichloro-1,2-difluoroethane	50	1000	4	188000	224	23.207	-5.48	-1300000	150	63	6.6	12.18	-489700
471-43-2	1,1-Dichloro-2,2-difluoroethane	50	1500	4	230000	238	22.579	-4.798	-2150000	128	68	3.5	13.06	-509900
1649-08-7	1,2-Dichloro-1,1-difluoroethane	50	1500	4	228000	224	22.398	-3.845	-4560000	177	49	8.5	11.91	-520000
33489-30-4	(1RS),(2RS)-Dichloro-1,2-difluoroethane	50	1500	4	200000	247	21.233	-2.829	-3590000	142	68	4.1	13.97	-498900
33579-37-2	(1R),(2S)-Dichloro-1,2-difluoroethane	50	1500	4	200000	247	21.222	-2.815	-3610000	142	68	4.3	13.28	-499700
79-43-6	Dichloroethanoic acid	298	1000	4	9070000	981	61.55	-56.646	48320000	138	42	-601.3	11.05	
23273-88-3	1,1,2-Trichloroethyl	50	3000	4	3000	41	17.593	-2.455	1190000	160	6	-16.2	11.93	31900
20394-27-8	1,2,2-Trichloroethyl	50	3000	4	143000	203	16.875	-1.655	-1020000	100	66	6.6	13.61	52300
23273-89-4	2,2,2-Trichloroethyl	50	3000	4	175000	238	15.26	0.142	80000	41	82	16.8	12.04	77800
2366-36-1	1,1,1-Trichloro-2-fluoroethane	50	1500	4	345000	270	21.895	-2.944	-1600000	124	72	-0.4	11.84	-299500
811-95-0	1,1,2-Trichloro-1-fluoroethane	50	1500	4	139000	188	24.378	-7.315	-50000	157	55	11.8	12.56	-324100
359-28-4	1,1,2-Trichloro-2-fluoroethane	50	1500	4	242000	239	22.118	-4.16	-2680000	128	68	4	14.71	-313600
630-20-6	1,1,1,2-Tetrachloroethane	200	1500	4	2078000	439	24.671	-6.831	1280000	56	174	23.4	13.32	-140800
79-34-5	1,1,2,2-Tetrachloroethane	298	1500	4	22000	174	24.101	-5.809	840000	168	30	67.3	13.94	-139500
75-38-7	1,1-Difluoroethene	200	1500	4	3966000	1632	20.446	-10.428	19610000	254	81	3	7.84	-329700
1630-78-0	(E)-1,2-Difluoroethene	200	1500	4	3351000	1596	25.029	-20.045	53580000	512	6	-16.5	7.41	-315800
1630-77-9	(Z)-1,2-Difluoroethene	200	1500	4	4334000	1373	20.608	-12.485	16300000	539	2	-5.6	7.73	-315500
114810-01-4	1,1,2-Trifluoroethyl radical	50	3000	4	99000	214	18.774	-3.839	-2200000	203	61	1.2	11.65	-458200
116819-06-8	1,2,2-Trifluoroethyl radical	50	3000	4	63000	166	16.958	-1.264	-13030000	284	25	7.2	11.41	-448000
3248-58-6	2,2,2-Trifluoroethyl radical	50	3000	4	22000	144	18.556	-3.578	-430000	164	64	17.9	9.94	-508400
353-83-3	2-Iodo-1,1,1-trifluoroethane	298	1000	4	1406000	524	3.881	25.637	-56430000	270	8	123.7	14.27	-632200
811-97-2	1,1,1,2-Tetrafluoroethane	50	3000	4	134000	230	21.886	-3.694	-2840000	156	70	2	10.59	-895900
359-35-3	1,1,2,2-Tetrafluoroethane	50	3000	4	241000	262	25.773	-9.067	4210000	181	67	8.6	10.18	-882400
288-37-9	1,2,5-Oxadiazol	298	1000	4	96000	450	15.515	2.417	-5110000	75	147	3.7	8.04	
288-90-4	1,2,4-Oxadiazole	298	1000	4	343000	391	98.576	2424.941	5251010000	835	156	-128.9	7.8	
288-99-3	1,3,4-Oxadiazole	298	1000	4	49000	218	15.914	2.308	-5800000	87	157	-52.3	7.43	
289-06-5	1,3,4-Thiadiazole	50	2000	4	31000	333	15.454	2.079	-8870000	127	117	-1	8.88	
290-96-0	1,2,4,5-Tetrazine	298	1000	4	25000	170	14.594	10.107	-21240000	181	77	-19.2	7.85	465400
463-51-4	Ketene (Ethenone)	50	1500	4	33000	419	13.395	-4.189	7810000	242	76	0.8	5.26	-44600
60032-17-9	Ketene-d	50	1500	4	629000	590	16.104	-9.994	14150000	329	107	-0.2	6.24	-47700
4789-21-3	Ketene-d2	50	1500	4	748000	703	17.618	-15.497	15810000	478	42	0.7	5.8	-50800
107-22-2	Ethanedial	298	1000	4	250000	150	20.999	-13.123	9880000	87	190	-78.4	-0.38	-210900
1558-67-4	Methanoic anhydride	298	1000	4	299000	210	21.752	-7.464	3890000	140	138	-204.4	7.07	
593-60-2	Bromoethylene	298	1000	4	376000	403	20.756	-11.476	17920000	190	162	-1515.4	8.62	78400
506-96-7	Ethanoyl bromide	298	1000	4	454000	288	23.379	-10.749	13100000	199	134	-119.5	9.45	-174300
2311-14-0	1,1,1-Tribromoethane	100	1500	4	762000	332	20.749	-1.664	-2370000	123	96	7.8	13.09	27000
75-01-4	Chloroethene	200	1500	4	5172000	957	20.5	-13.455	15230000	296	257	8.4	8.01	36000
75-68-3	1-Chloro-1,1-difluoroethane	50	1500	4	348000	373	18.153	2.491	-6250000	155	74	0.3	10.36	-517600
338-65-8	2-Chloro-1,1-difluoroethane	50	1500	4	82000	188	19.156	0.949	-11430000	218	52	5.4	11.5	-495900
75-36-5	Ethanoyl chloride	298	1000	4	567000	346	23.773	-11.84	13860000	204	145	-64.2	8.99	-233800
79-11-8	Chloroethanoic acid	298	1000	4	7103000	592	9.784	28.28	-32390000	83	171	-485.8	10.52	-427300
79-22-1	Methoxymethanoyl chloride	298	1000	0	386000	277	23.118	1.228	2990000	68	44	454.3	29.17	
19468-97-4	1,1-Dichloroethyl	50	3000	4	112000	215	21.197	-7.048	7870000	215	54	1.3	11.1	50500
23273-86-1	1,2-Dichloroethyl	50	3000	4	64000	170	17.944	-2.576	1540000	180	47	7.1	12	72800
23273-87-2	2,2-Dichloroethyl	50	3000	4	14766000	1341	24.484	-11.198	33120000	192	34	-3.7	10.99	88800
1717-00-6	1,1-Dichloro-1-fluoroethane	50	1500	4	487000	377	18.162	2.296	-6150000	150	73	-0.1	11.09	-328500
430-53-5	1,1-Dichloro-2-fluoroethane	50	1500	4	210000	246	19.806	-0.095	-6060000	161	68	-1.5	12.04	-295100
430-57-9	1,2-Dichloro-1-fluoroethane	50	1500	4	99000	194	19.457	0.145	-7530000	193	55	9.5	13.1	-307300
71-55-6	1,1,1-Trichloroethane	200	1500	4	571000	323	19.803	-0.384	-1660000	91	107	-46.9	10.05	-131700
79-00-5	1,1,2-Trichloroethane	298	1500	4	516000	305	22.134	-3.508	-950000	79	136	-55.6	12.11	-133900
75-02-5	Fluoroethene	200	1500	4	5063000	1338	20.465	-14.473	3860000	604	60	-1.4	8	-131000
557-99-3	Ethanoyl fluoride	298	1000	4	620000	404	23.012	-10.742	10670000	188	166	-11.1	8.62	-432400
24314-99-6	1,1-Difluoroethyl radical	50	3000	4	132000	285	19.458	-4.611	1050000	215	78	0.8	9.32	-293100
116819-05-7	1,2-Difluoroethyl radical	50	3000	4	98000	190	17.516	-1.826	-11300000	261	73	6.4	10.24	-234000
41290-94-2	2,2-Difluoroethyl radical	50	3000	4	28000	159	18.977	-3.957	-4470000	299	34	3.9	9.22	-271500
420-46-2	1,1,1-Trifluoroethane	50	3000	4	43000	252	22.721	-4.6	-400000	212	53	1.6	8.48	-732900
430-66-0	1,1,2-Trifluoroethane	50	3000	4	135000	240	22.249	-3.982	-3220000	203	72	3.3	10.57	-657200
75-05-8	Ethanenitrile	200	1500	4	2570000	780	19.035	-9.839	5260000	241	247	18	5.36	71500
624-83-9	Methyl isocyanate	298	1000	4	717000	446	21.984	-7.903	7770000	203	170	39.9	9.15	
556-64-9	Methyl thiocarbonitrile	273	1000	4	839000	414	23.162	-10.102	13440000	230	126	30.2	9.66	
74-85-1	Ethene	50	3000	4	12085000	1421	10.619	5.258	-66950000	264	307	0.3	3.29	61000
557-91-5	1,1-Dibromoethane	100	1500	4	972000	416	16.654	5.352	-6370000	93	141	5.3	12.53	-13600
106-93-4	1,2-Dibromoethane	298	1000	4	67693000	1374	52.502	-40.879	148470000	200	23	-2263.5	10.49	-38900
16520-13-1	1-Chloroethyl	50	3000	4	87000	200	23.742	-11.256	17510000	334	76	1.9	8.75	87100
16519-99-6	2-Chloroethyl	50	3000	4	161000	302	17.522	-1.668	50000	193	88	-2.3	8.86	103400
1615-75-4	1-Chloro-1-fluoroethane	50	1500	4	184000	346	17.121	5.215	-8730000	197	67	-1	10.45	-300400
762-50-5	1-Chloro-2-fluoroethane	50	1500	4	64000	167	15.313	8.026	-20290000	235	54	10.7	9.96	-277000
75-34-3	1,1-Dichloroethane	200	1500	4	216000	234	19.064	1.462	-670000	111	110	-92.1	9.27	-117400
107-06-2	1,2-Dichloroethane	298	1500	4	2582000	551	23.42	-5.182	2310000	61	235	16.1	10.13	-114900
52067-19-3	1-Fluoroethyl radical	50	3000	4	41000	179	20.595	-6.411	-1200000	313	95	17.9	8.41	-53200
28761-00-4	2-Fluoroethyl radical	50	3000	4	79000	178	19.739	-5.089	-6610000	333	80	9.3	7.22	-41800
75-37-6	1,1-Difluoroethane	50	3000	4	990000	498	34.932	-24.907	50200000	275	155	5.2	8.74	-487000
624-72-6	1,2-Difluoroethane	50	3000	4	551000	379	24.093	-6.635	-1630000	196	142	6.1	8.9	-434400
624-73-7	1,2-Diiodoethane	298	1000	4	70519000	1200	57.356	-52.232	141210000	162	28	-2259.7	12.59	66500
75-07-0	Ethanal	50	3000	4	77000	234	42.204	-49.45	305910000	724	59	1.4	6.87	-155700
75-21-8	Oxirane	50	1500	4	6056000	1182	34.474	-36.754	136450000	538	201	-0.7	5.97	-40100
4122-13-8	Ethanal-d1	50	3000	4	28000	205	40.388	-47.419	234890000	721	23	16.5	7.2	-159900
1632-89-9	Ethanal-d4	50	3000	4	63000	200	21.341	-7.973	-2950000	290	64	-0.5	7.43	-179500
6552-57-4	Oxirane-d4	50	1500	4	6635000	1183	56.137	-76.585	1047270000	1015	73	0	6.49	-88700
6851-93-0	Methylthiamethanal	298	1000	4	1372000	484	30.124	-23.711	18880000	241	158	26.2	9.62	
32872-40-5	Methylthionemethanoate	298	1000	4	531000	321	34.151	-24.359	35350000	232	155	-63.6	8.98	
507-09-5	Thioacetic acid	298	1000	4	8313000	839	1.469	28.11	-76590000	155	196	-1788.1	12.18	-181900
64-19-7	Ethanoic acid	50	1500	4	34000	144	34.604	-29.582	31270000	388	81	0.7	8.49	-418100
107-31-3	Methyl formate	298	1000	4	2584000	598	-16.966	65.353	-102510000	272	25	-1592	11.73	-349700
79-21-0	Peroxyethanoic acid	298	1000	4	1365000	484	32.102	-17.914	10040000	203	147	72.7	10.79	
14523-98-9	Methanoic acid (Dimer)	298	1000	4	812000	410	18.631	16.562	-31440000	237	48	137.8	11.83	-804200
420-12-2	Thiacyclopropane	50	5000	4	4665000	1010	21.774	-7.612	-40000	268	201	-0.2	7.15	94400
2025-56-1	Ethyl radical	200	3000	4	3086000	851	22.173	-9.654	2500000	271	239	72.2	5.87	119300
74-96-4	Bromoethane	100	1500	4	658000	456	35.467	-26.227	61820000	322	145	1.6	9.54	-41600
75-00-3	Chloroethane	200	1500	4	507000	420	31.552	-18.943	34260000	266	150	-15.7	8.21	-97700
353-36-6	Fluoroethane	50	3000	4	605000	474	28.91	-14.337	20600000	251	161	3.2	7.31	-249600
75-03-6	Iodoethane	100	1500	4	667000	443	35.287	-25.897	60570000	323	143	2.8	10.34	7700
151-56-4	Aziridine	298	1000	4	727000	628	28.913	-12.884	20500000	165	205	-41.8	6.46	142500
56003-82-8	cis-Iminoethane	298	1000	4	873000	514	25.694	-8.282	7970000	191	195	26.9	7.51	
56003-81-7	trans-Iminoethane	298	1000	4	284000	198	23.871	-3.847	8010000	110	206	-415	3.02	
1761-67-7	Methyliminomethane	298	1000	4	521000	375	24.815	-4.609	8210000	179	179	-72.8	6.21	
60-35-5	Ethaneamide	298	1500	4	120000	140	39.099	-27.358	55010000	362	105	-245.6	4.66	-221000
123-39-7	N-Methylmethaneamide	298	1500	4	681000	377	33.826	-17.278	21660000	219	172	-47.4	8	
79-24-3	Nitroethane	50	1500	4	37000	177	68.201	-81.51	423550000	692	16	15.5	11.26	-81700
625-58-1	Ethyl nitrate	298	1000	4	50801000	1127	39.793	-14.034	72450000	120	47	-2243.7	13.53	-154000
108-19-0	Biuret	300	1000	4	1277000	486	23.748	18.172	-28600000	228	37	158.1	13.07	-414600
6569-82-0	Phosphirane	298	1000	4	11760000	1240	4.453	35.475	-165450000	484	28	-3.5	7.92	
74-84-0	Ethane	50	1500	4	1425000	698	30.552	-18.331	28980000	325	199	12.3	3.74	-68200
598-50-5	Methylcarbamide	298	1000	4	154000	116	30.278	1.85	-800000	173	97	-503	3.2	-212400
115-10-6	Dimethyl ether	100	3000	4	672000	412	30.034	-13.676	11490000	299	144	5.2	6.52	-166600
64-17-5	Ethanol	50	3000	4	124000	245	50.539	-49.469	220440000	560	78	21.1	8.09	-217400
13725-27-4	Methoxymethane-1,1,1-d3	298	1000	4	368000	502	16.24	14.974	-36920000	298	38	78.3	8.25	
17222-37-6	Methoxymethane-d6	100	3000	4	617000	372	29.545	-10.812	2300000	163	143	11.1	7.1	-192900
107-21-1	Ethanediol	298	1000	4	170000	138	19.268	13.886	-12170000	144	94	-380.7	3.77	-367900
75-08-1	Ethanethiol	50	3000	4	676000	378	31.039	-12.764	15170000	237	141	6.8	9.16	-29200
75-18-3	2-Thiapropane	273	1000	4	620000	357	29.847	-5.871	13780000	240	132	-12.2	7.62	-21000
624-92-0	2,3-Dithiabutane	273	1000	4	1103000	378	20.839	12.954	-11900000	142	117	98.3	11.6	-7200
75-04-7	Ethanamine	50	1500	4	73000	184	58.803	-50.359	333780000	654	40	2.2	7.44	-26700
124-40-3	Methylaminomethane	273	1500	4	103000	132	43.321	-27.037	47580000	381	97	-256.3	3.01	3000
3114-46-3	Bromopropynenitrile	298	600	4	430000	462	19.186	-14.088	10550000	167	49	53.2	9.25	
2003-31-8	Chloropropynenitrile	298	600	4	446000	460	17.89	-11.946	8760000	164	54	38.6	8.07	
6262-42-6	Tetrachlorocyclopropene	298	1000	4	3638000	759	22.383	-7.949	5760000	74	40	84.8	13.88	
3170-79-4	Perfluoropropyl radical	50	3000	4	226000	197	32.339	-9.948	-1690000	111	62	18.8	15.08	-1284000
76-19-7	Perfluoropropane	200	1500	4	8682000	1491	28.325	-1.466	1440000	61	38	-1307.2	14.74	-1726300
2003-32-9	Iodopropynenitrile	298	600	4	692000	462	13.986	-5.049	3210000	180	40	41.1	9.89	
1115-12-4	Oxopropanedinitrile	298	1000	4	308890000	1723	-48.967	73.468	123270000	23	195	367.5	15.02	248000
504-64-3	Carbon suboxide	50	4000	4	35695000	472	11.474	-1.747	38380000	40	29	-1.5	6.6	-96900
18328-05-7	3-Bromo-2-propynal	300	600	4	747000	340	28.555	-11.446	51430000	273	123	-29.9	10.95	
39695-58-4	3-Chloro-2-propynal	300	600	4	-71000	200	23.554	-16.264	9850000	112	50	192.3	12.15	
661-54-1	1,1,1-Trifluoro-2-propyne	298	1000	4	1709000	632	46.822	-58.072	208380000	523	50	91.4	10.19	
20328-44-3	3-Iodo-2-propynal	300	600	4	73000	250	16.438	-4.93	3550000	95	50	75.9	12.61	
1070-71-9	2-Propynenitrile	50	1500	3.5	2757000	1096	17.205	-8.275	15340000	211	25	-0.2	7.27	378300
7125-84-0	1,1,1-Trichloro-3,3,3-trifluoropropane	298	1000	4	575000	284	30.431	-0.28	-8910000	154	49	172.9	13.94	
3899-71-6	1,1,2,2-Tetrafluorocyclopropane	298	1000	4	621000	335	23.339	0.562	-5650000	95	114	-41.7	9.99	
2314-40-1	1,3-Dithiol-2-one	298	1000	4	380350000	1486	-82.398	147.701	177040000	50	150	185.9	11.76	-5700