CASRN	Chemical	Tmin	Tmax	a0	a1	a2	a3	a4	a5	a6	a7	I	J	Hf
78-93-3	2-Butanone	200	1500	4	2099000	443	59.012	-41.03	69070000	291	163	98	11.41	-217100
2919-23-5	Cyclobutanol	50	1500	4	312000	272	24.993	19.996	-22790000	143	101	-0.9	9.38	-169000
1758-33-4	cis-2,3-Epoxybutane	298	1000	4	9973000	818	-4.704	81.632	-124310000	194	125	219.1	11.65	
21490-63-1	trans-2,3-Epoxybutane	298	1000	4	1617000	688	20.575	32.836	-72030000	323	15	119.4	9.67	
106-88-7	DL-Ethyloxirane	200	1500	4	455000	258	34.886	2.135	-6530000	133	132	-21.8	8.89	-83500
109-99-9	Oxolane	50	1500	4	60000	193	20.737	29.945	-47330000	190	92	23.4	10.53	-156500
505-22-6	1,3-Dioxane	50	1500	4	178000	337	25.19	28.996	-68210000	249	63	0.4	10.08	-306500
123-91-1	1,4-Dioxane	50	1500	4	174000	323	26.156	27.065	-60040000	239	64	0.1	9.39	-284300
141-78-6	Ethyl acetate	298	1000	4	138416000	1412	110.967	-103.944	317930000	216	9	-3255.2	6.78	-442900
6993-75-5	Ethanoic acid (Dimer)	50	1500	4	242000	159	50.615	-4.546	-14210000	289	30	17.7	12.04	-900300
110-01-0	Thiacyclopentane	50	1500	4	113000	199	-0.185	38.415	550000	59	6	14.3	10.38	-7600
2492-36-6	Butyl radical	200	3000	4	939000	339	52.01	-24.891	39690000	236	142	30.4	10.04	89000
1605-73-8	1,1-Dimethylethyl radical	200	3000	4	879000	364	48.246	-19.852	14120000	238	171	157.1	10.74	63400
2348-55-2	1-Methylpropyl radical	200	3000	4	258000	170	51.059	-24.116	30060000	334	92	-220.3	7.88	78500
4630-45-9	2-Methylpropyl radical	200	3000	4	1399000	434	49.361	-20.783	27460000	209	156	45.9	10.45	81300
109-65-9	1-Bromobutane	298	1000	4	94699000	1151	89.737	-69.227	194620000	162	20	-2879.4	10.67	-107300
78-76-2	2-Bromobutane	298	700	4	4638000	645	10.068	1.877	-200790000	332	48	390.7	15.44	-102100
507-19-7	2-Bromo-2-methylpropane	298	1000	4	76012000	1281	67.525	-37.979	147110000	183	20	-2782.9	7.57	-133800
109-69-3	1-Chlorobutane	200	1500	4	260000	137	40.282	0.106	-2000000	168	103	-495.6	4.64	-127800
78-86-4	(2RS)-Chlorobutane	200	1500	4	325000	181	43.875	-5.255	5750000	180	102	-194.4	8.18	-140300
513-36-0	1-Chloro-2-methylpropane	200	1500	4	2115000	506	65.344	-46.842	66740000	292	143	157	13.42	-134400
507-20-0	2-Chloro-2-methylpropane	200	1500	4	664000	292	38.8	1.504	-3900000	128	123	-139.6	7.58	-157800
2366-52-1	1-Fluorobutane	200	1500	4	552000	234	41.875	-2.17	310000	144	134	-224.3	8.84	-277900
353-61-7	2-Methyl-2-fluoropropane	298	700	4	3166000	655	23.535	-3.518	-123160000	327	46	138.2	9.77	
29882-56-2	(+)-2-Iodobutane	298	700	4	38230000	976	-89.886	107.985	-647470000	268	124	450.1	16.91	-70700
558-17-8	2-Methyl-2-iodopropane	298	700	4	195000	141	22.198	29.484	-30490000	223	23	-444.8	4.66	-44800
123-75-1	Pyrrolidine	298	1000	4	49464000	1466	15.132	38.109	21400000	91	102	-1656.3	12.45	-3500
594-70-7	2-Methyl-2-nitropropane	50	1500	4	57000	179	50.831	-9.812	-25940000	339	10	24.4	11.99	-142600
627-05-4	1-Nitrobutane	50	1500	4	97000	180	40.138	10.027	-46410000	313	10	17	13.54	-111500
600-24-8	2-Nitrobutane	50	1500	4	275000	242	41.483	7.129	-21570000	211	65	20.3	13.33	-130400
106-97-8	Butane	200	1500	4	554000	301	80.471	-72.77	243490000	478	91	2.3	8.06	-97200
75-28-5	2-Methylpropane	50	1500	4	1329000	435	73.368	-59.346	150690000	357	141	3.5	7.74	-106400
71-36-3	1-Butanol	50	3000	4	366000	245	50.743	-13.149	5660000	246	92	10.3	13.11	-244400
78-92-2	2-Butanol	50	3000	4	375000	254	54.44	-19.205	15590000	305	68	13.2	12.43	-263400
60-29-7	Diethyl ether	100	1500	4	1473000	375	30.675	23.105	-50730000	234	85	31.1	9.6	-223400
598-53-8	Methyl isopropyl ether	298	1000	4	1656000	401	2.639	42.823	1250000	36	41	-2549.1	10.44	-252000
557-17-5	Methyl propyl ether	298	1000	4	14305000	488	2.439	41.992	14570000	38	36	-2667.8	10.86	-237700
75-65-0	2-Methyl-2-propanol	50	3000	4	619000	326	53.62	-18.604	13500000	264	88	9.1	9.58	-282200
109-79-5	1-Butanethiol	273	1000	4	1074000	303	54.176	-0.236	15790000	189	137	34.3	12.27	-60800
513-53-1	2-Butanethiol	273	1000	4	734000	250	44.453	4.15	650000	146	124	-256.4	9.93	-68200
513-44-0	2-Methyl-1-propanethiol	273	1000	4	920000	265	36.561	12.41	-4140000	73	149	-225.8	9.19	-69000
75-66-1	2-Methyl-2-propanethiol	273	1000	4	1195000	329	39.332	7.156	-6080000	100	143	-180.1	8.58	-80000
1551-21-9	3-Methyl-2-thiabutane	273	1000	4	1305000	327	38.043	11.037	-4100000	83	154	-120.7	10.57	-61900
3877-15-4	2-Thiapentane	273	1000	4	839000	252	38.318	6.131	-4190000	96	143	-184.1	9.89	-54500
352-93-2	3-Thiapentane	273	1000	4	1660000	366	32.516	18.2	-10700000	58	168	-0.9	12.47	-55200
110-81-6	3,4-Dithiahexane	273	1000	4	2256000	384	37.744	14.839	-10500000	81	150	128.1	15.95	-46200
109-73-9	Butylamine	298	1000	4	138000	85	0.442	47.079	-650000	58	15	-3406.3	-2.48	-92000
13952-84-6	sec-Butylamine	298	1000	4	179000	222	18.017	27.265	3120000	71	16	-2811.4	8.95	-104200
109-89-7	Diethylamine	298	1000	4	74137000	1217	80.964	-47.785	157410000	176	14	-2970.8	7.94	-72400
75-64-9	2-Methyl-2-propanamine	50	1500	4	626000	337	47.208	1.126	-6640000	241	74	1	9.32	-87100
559-40-4	Octafluorocyclopentene	298	1000	4	5693000	1449	45.353	-14.177	6450000	76	61	327.5	16.74	
6129-04-0	Perfluoropentyl radical	50	3000	4	23027000	468	65.975	-27.453	32020000	47	23	30	20.92	-2103000
678-26-2	Perfluoropentane	200	1500	4	14622000	1556	44.174	1.032	970000	79	20	-1937.1	20.72	-2545400
24331-09-7	Tetracyanomethane	298	500	4	809000	454	21.943	1.86	-4440000	169	20	143	11.45	671300
59866-32-9	2,4-Pentadiynenitrile	50	1500	3.5	9643000	382	0.516	17.746	8110000	24	29	-21.8	8.97	594700
40201-94-3	1-Bromo-1,3-pentadiyne	298	600	4	659000	250	27.74	-6.206	5770000	100	120	-169.9	8.23	
40331-44-0	1-Chloro-1,3-pentadiyne	298	600	4	656000	250	29.139	-7.438	8050000	100	126	-185.7	7.14	
40201-91-0	1-Iodo-1,3-pentadiyne	298	600	4	653000	250	27.839	-6.161	5890000	106	116	-147.5	8.92	
4911-55-1	1,3-Pentadiyne	298	600	4	220000	250	49.4	-18.85	137240000	441	32	-65.4	6.52	
98-01-1	2-Furaldehyde	298	1000	4	556000	269	58.119	-54.222	62140000	208	143	-228.1	10.06	-137900
110-86-1	Pyridine	298	1000	4	256000	387	67.979	-69.271	182810000	377	121	-17	8.83	157300
1807-97-2	Pyridine-2-d	50	1500	4	130000	374	75.738	-84.672	281360000	455	95	-1.3	9.75	152800
3748-86-5	Pyridine-3-d	50	1500	4	136000	375	75.386	-84.187	275700000	453	95	-2.1	9.75	152600
10259-15-1	Pyridine-4-d	50	1500	4	107000	356	71.9	-78.439	224100000	430	94	-2.8	9.05	152600
17265-96-2	Pyridine-2,6-d2	50	1500	4	144000	375	73.183	-80.923	224470000	422	93	-2.4	9.12	147900
50535-44-9	Pyridine-3,5-d2	50	1500	4	141000	377	74.115	-83.606	246430000	444	92	-2.6	9.12	150300
71150-38-4	Pyridine-2,4,6-d3	50	1500	4	153000	380	72.024	-79.493	194230000	401	92	-1.6	9.19	143900
71150-39-5	Pyridine-3,4,5-d3	50	1500	4	155000	384	70.969	-77.423	182500000	395	92	-2.4	9.19	143900
71150-40-8	Pyridine-2,3,5,6-d4	50	1500	4	242000	416	68.753	-73.209	147090000	363	95	-1.1	9.27	139100
7291-22-7	Pyridine-d5	50	1500	4	364000	443	66.869	-68.988	122150000	335	99	-1.8	9.33	134600
542-92-7	Cyclopentadiene	50	1500	4	1167000	616	63.439	-58.906	154730000	344	148	-0.8	8.22	151400
10563-01-6	1,2,4-Pentatriene	300	1000	4	522000	271	44.664	-22.174	29910000	203	131	-166.8	7.59	
534-22-5	2-Methylfuran (Sylvan)	50	1500	4	91000	220	100.121	-101.18	864030000	688	46	-1.6	9.88	-48000
930-27-8	3-Methylfuran	50	1500	4	87000	213	102.173	-99.335	934720000	700	44	-2.5	9.91	-49100
554-14-3	2-Methylthiophene	50	1500	4	125000	211	29.564	7.305	-13840000	176	81	-0.5	10.67	101000
616-44-4	3-Methylthiophene	50	1500	4	162000	229	29.186	7.78	-13420000	166	86	-1.5	10.66	100000
4786-24-7	3-Methyl-2-butenenitrile	298	1000	4	836000	326	56.24	-32.019	48660000	280	104	-32	10.04	
96-54-8	1-Methylpyrrole	50	1500	4	107000	216	85.455	-88.824	309100000	480	82	6.3	9.92	
636-41-9	2-Methyl-1H-pyrrole	50	1500	4	62000	194	88.857	-94.751	379900000	531	64	17	10.61	96500
616-43-3	3-Methyl-1H-pyrrole	50	1500	4	64000	197	88.509	-94.744	374250000	531	64	18.3	10.62	92700
13284-42-9	(Z)-2-Pentenenitrile	50	1500	4	214000	222	40.625	-3.518	-6040000	265	56	6.1	11.31	133900
25899-50-7	(Z)-2-Pentenenitrile	298	1000	4	539000	263	60.006	-39.287	60820000	289	105	-87.9	10.46	134000
142-29-0	Cyclopentene	50	1500	4	132000	266	84.008	-84.808	305550000	470	105	3.2	9.18	58200
78-79-5	2-Methyl-1,3-butadiene	50	1500	4	269000	284	39.993	-2.576	-110000	221	78	0.4	9.49	96300
598-25-4	3-Methyl-1,2-butadiene	50	1500	4	421000	290	48.849	-18.235	19670000	330	60	1.6	8.96	148000
598-23-2	3-Methyl-1-butyne	50	1500	4	314000	307	32.235	8.985	-14610000	219	61	39.2	9.83	156100
1120-56-5	Methylenecyclobutane	298	1000	4	604000	298	55.172	-28.258	36830000	166	172	-237.3	7.21	144900
591-95-7	1,2-Pentadiene	50	1500	4	415000	290	79.414	-76.74	262120000	506	66	3	11.14	160500
2004-70-8	(E)-1,3-Pentadiene	50	1500	4	371000	298	74.825	-70.112	200260000	479	67	113	9.47	95400
1574-41-0	(Z)-1,3-Pentadiene	50	1500	4	189000	216	79.816	-80.634	273010000	541	51	2.4	9.59	103000
591-93-5	1,4-Pentadiene	50	1500	4	141000	195	82.864	-83.731	297570000	538	50	520.7	10.93	121600
591-96-8	2,3-Pentadiene	50	1500	4	458000	293	65.077	-53.674	110610000	456	64	2.9	10.23	152600
627-19-0	1-Pentyne	50	1500	4	47000	156	32.008	11.214	-28820000	302	15	14.4	10.08	162700
627-21-4	2-Pentyne	50	1500	4	128000	198	33.396	8.685	-37060000	341	15	17.9	10.29	139900
157-40-4	Spiropentane	298	1000	4	42081000	1136	37.465	0.412	60780000	146	20	-2110.8	5.5	185200
120-92-3	Cyclopentanone	50	1500	4	127000	226	99.213	-110.503	439370000	544	74	4.5	10.23	-165800
591-87-7	2-Propenylethanoate	298	1000	4	617000	291	82.172	-68.759	128790000	312	109	-39.5	11.05	
137-43-9	Bromocyclopentane	298	1000	4	1986000	437	45.049	-0.069	1800000	59	191	119.3	14.37	
930-28-9	Chlorocyclopentane	100	1000	4	1160000	393	37.28	14.66	-12680000	78	171	74.6	12.53	-97400
3922-27-8	1,1,1-Trichloropentane	200	1500	4	1549000	302	47.695	1.732	-5200000	88	133	-79.1	15.05	-177000
1481-36-3	Fluorocyclopentane	298	1000	4	459000	222	65.747	-36.788	45890000	183	159	-349.9	7.83	
406-82-6	1,1,1-Trifluoropentane	200	1500	4	1080000	274	48.619	0.74	-4030000	99	131	-109.7	12.53	-778100
630-18-2	2,2-Dimethylpropanenitrile	200	1500	4	1406000	385	80.48	-66.505	143990000	340	112	1.7	9.23	22800
625-28-5	3-Methylbutanenitrile	200	1500	4	265000	231	45.82	-1.163	-8910000	255	58	-5.4	11.58	27800
110-59-8	Pentanenitrile	50	1500	4	131000	180	40.704	8.327	-45980000	341	10	14.7	11.08	35600
287-92-3	Cyclopentane	50	3000	4	466000	391	54.533	-16.805	5260000	199	154	45.6	9.53	-44500
1630-94-0	1,1-Dimethylcyclopropane	50	3000	4	585000	363	92.814	-85.033	297440000	455	90	24.2	8.95	20800
930-18-7	cis-1,2-Dimethylcyclopropane	50	3000	4	459000	321	98.261	-97.909	409510000	536	78	1.2	8.8	29500
2402-06-4	trans-1,2-Dimethylcyclopropane	50	3000	4	564000	335	92.615	-85.507	302490000	467	90	0	9.49	25400
563-46-2	2-Methyl-1-butene	273	1500	4	1996000	428	65.18	-37.101	56240000	232	168	12	10.99	-8200
513-35-9	2-Methyl-2-butene	298	1500	4	10535000	791	59.681	-31.017	20910000	215	263	297.2	13.58	-13400
563-45-1	3-Methyl-1-butene	298	1500	4	3138000	492	59.189	-25.624	32050000	186	189	-160.8	10.2	
109-67-1	1-Pentene	200	1500	4	3212000	502	46.467	-5.305	2120000	89	212	152.2	12.34	4600
646-04-8	(E)-2-Pentene	298	1500	4	1719000	411	67.147	-41.275	66150000	277	153	54.8	11.46	-4600
627-20-3	(Z)-2-Pentene	298	1500	4	1941000	443	63.914	-34.344	51820000	209	189	101.4	12.96	1300
594-51-4	2,3-Dibromo-2-methylbutane	298	1000	4	106083000	1589	87.909	-47.508	250180000	263	8	-3342.2	14.03	-138900
820-55-3	1,1-Dichloropentane	200	1500	4	973000	253	47.96	2.199	-3370000	105	128	-167.9	13.62	-162600
62127-40-6	1,1-Difluoropentane	200	1500	4	932000	259	48.927	1.324	-4330000	117	132	-135	14.52	-532200
96-41-3	Cyclopentanol	50	1500	4	116000	188	35.284	22.493	-38520000	213	63	16.5	12.53	-209300
110-62-3	Pentanal	273	1500	4	523000	167	43.88	11.824	-21860000	207	91	-452.9	3.64	-201300
107-87-9	2-Pentanone	200	1000	4	1258000	322	41.181	9.316	-13270000	146	127	103.6	12.36	-232800
96-22-0	3-Pentanone	200	1000	4	1542000	346	39.433	15.883	-15630000	149	125	31.6	11.19	-231500
1679-07-8	Cyclopentanethiol	298	1000	4	58897000	1123	61.464	-18.208	101080000	148	20	-2595.1	11.82	-47800
1613-51-0	Thiacyclohexane	273	1000	4	1824000	460	38.504	29.765	-24430000	68	175	-45.1	10.55	-29700
4348-35-0	1,1-Dimethylpropyl radical	200	3000	4	1430000	382	61.787	-25.745	23310000	225	168	132.8	14.92	48500
2679-30-3	1,2-Dimethylpropyl radical	200	3000	4	1658000	390	61.694	-25.036	28320000	201	162	55.8	13.53	55100
3744-21-6	2,2-Dimethylpropyl radical	200	3000	4	7520000	698	62.519	-22.718	-18070000	252	195	520.6	11.79	56400
800000-56-0	1-Methylbutyl radical	200	3000	4	1486000	352	68.561	-31.633	46850000	236	144	272.5	22.25	54600
2492-33-3	3-Methylbutyl radical	200	3000	4	5256000	613	58.414	-20.139	4000000	196	194	238.6	14.33	68600
2672-01-7	Pentyl radical	200	3000	4	2776000	458	62.901	-26.963	34090000	181	183	282.7	13.73	73200
753-89-9	1-Chloro-2,2-dimethylpropane	200	1500	4	8974000	700	88.304	-71.183	99300000	320	203	468.3	13.95	-163600
616-13-7	1-Chloro-(2RS)-methylbutane	200	1500	4	2625000	471	86.388	-67.553	114240000	295	148	70.6	15.8	-145300
107-84-6	1-Chloro-3-methylbutane	200	1500	4	2625000	471	86.388	-67.553	114240000	295	148	70.6	15.8	-145300
594-36-5	2-Chloro-2-methylbutane	200	1500	4	958000	289	47.469	3.256	-5860000	118	128	-286.6	10.33	-168700
631-65-2	(2RS)-Chloro-3-methylbutane	200	1500	4	3206000	504	130.998	-52.316	71010000	269	152	-32	14.69	-157700
543-59-9	1-Chloropentane	200	1500	4	860000	248	48.834	1.841	-2710000	115	137	-170.9	11.52	-143800
625-29-6	(2RS)-Chloropentane	200	1500	4	696000	230	53.2	-1.839	1860000	140	121	-106.6	70.92	-156200
616-20-6	3-Chloropentane	200	1500	4	640000	219	51.95	-2.747	2750000	145	118	-112.1	9.73	-157600
592-50-7	1-Fluoropentane	200	1500	4	788000	239	50.616	-0.539	-1630000	131	135	-185	10.19	-293600
463-82-1	2,2-Dimethylpropane	200	1500	4	3127000	611	59.451	7.254	-36560000	311	106	482.2	8.8	-135000
78-78-4	2-Methylbutane	200	1500	4	2211000	480	87.596	-61.089	132670000	363	134	196.1	12.19	-119700
109-66-0	Pentane	200	1500	4	722000	251	50.157	2.998	-8770000	176	123	-24.6	8.1	-114900
1634-04-4	Methyl 2,2-dimethylethyl ether	298	1000	4	9170000	586	-58.602	198.039	-317410000	263	39	-2646.1	12.75	
75-85-4	2-Methyl-2-butanol	298	1000	4	383000	80	6.259	44.861	1830000	50	14	-5481.7	-39.52	
71-41-0	1-Pentanol	200	1500	4	736000	239	48.773	4.522	-4860000	115	132	-103.5	12.72	-260400
6163-64-0	3,3-Dimethyl-2-thiabutane	273	1000	4	1565000	336	46.81	11.221	-8850000	98	141	-112.1	10.59	-86100
1679-09-0	2-Methyl-2-butanethiol	273	1000	4	314000	174	48.26	11.001	-20810000	234	50	-281.6	8.83	-92300
110-66-7	1-Pentanethiol	273	1000	4	1970000	357	75.373	-18.845	42350000	214	149	167.3	15.45	-77800
2084-19-7	2-Pentanethiol	273	1000	4	3197000	436	84.488	-55.862	81600000	233	171	128.8	15.56	-83800
628-29-5	2-Thiahexane	273	1000	4	1331000	290	46.233	7.027	-8660000	94	146	-1.7	13.15	-69400
4110-50-3	3-Thiahexane	273	1000	4	1796000	332	42.299	15.852	-11300000	62	164	5.5	14.29	-71400
344-04-7	Pentafluorobromobenzene	298	1000	4	11484000	658	-10.415	79.381	-152090000	211	90	444.5	18.39	
87-82-1	Hexabromobenzene	200	1500	4	4612000	559	43.822	-14.427	8300000	32	56	389.1	21.58	298800
344-07-0	Chloropentafluorobenzene	200	1500	4	19722000	405	49.59	-20.542	28480000	49	14	71.6	13.2	-806300
1198-59-0	1,2-Dichlorotetrafluorobenzene	200	1500	4	5135000	839	44.308	-15.156	10310000	62	55	162.6	16.37	-652800
1198-61-4	1,3-Dichlorotetrafluorobenzene	200	1500	4	5135000	839	44.308	-15.156	10310000	62	55	162.6	16.37	-662400
1198-62-5	1,4-Dichlorotetrafluorobenzene	200	1500	4	5135000	839	44.308	-15.156	10310000	62	55	162.6	15.67	-662400
827-12-3	1,2,3-Trichlorotrifluorobenzene	200	1500	4	3611000	801	44.189	-14.978	8580000	61	52	165.7	16.9	-500400
827-13-4	1,2,4-Trichlorotrifluorobenzene	200	1500	4	3611000	801	44.189	-14.978	8580000	61	52	165.7	17.6	-510000
319-88-0	1,3,5-Trichlorotrifluorobenzene	200	1500	4	1113000	611	44.786	-15.627	6630000	40	61	230	15.97	-520300
938-61-4	1,2,3,4-Tetrachlorodifluorobenzene	200	1500	4	612000	714	43.417	-13.943	5020000	53	52	178.6	17.57	-347500
1198-56-7	1,2,3,5-Tetrachlorodifluorobenzene	200	1500	4	9601000	2000	24.834	6.191	550000	8	47	83.5	16.54	-357100
1198-58-9	1,2,4,5-Tetrachlorodifluorobenzene	200	1500	4	496000	709	43.43	-13.959	4910000	53	52	178.7	16.87	-357100
319-87-9	Pentachlorofluorobenzene	200	1500	4	3899000	726	43.932	-14.606	8460000	61	45	155.4	17.77	-195000
118-74-1	Hexachlorobenzene	200	1500	4	11120000	696	42.444	-12.805	14120000	39	60	267.5	16.85	-32900
392-56-3	Hexafluorobenzene	200	1500	4	13093000	1973	31.491	-0.398	1380000	72	36	36.2	11.71	-952400
355-42-0	Perfluorohexane	200	1500	4	17727000	1581	53.535	0.838	530000	96	11	-2279.3	23	-2954900
608-90-2	Pentabromobenzene	200	1500	4	21382000	714	38.783	-8.564	23080000	42	59	283.5	21.82	256300
608-71-9	Pentabromophenol	298	1000	4	12537000	575	70.178	-54.355	86760000	70	303	-38.9	21.26	
769-37-9	1-Chloro-2,3,4,5-tetrafluorobenzene	200	1500	4	17066000	921	40.956	-10.987	21450000	68	60	146.3	15.59	-642600
5172-06-5	2-Chloro-1,3,4,5-tetrafluorobenzene	200	1500	4	17066000	921	40.956	-10.987	21450000	68	60	146.3	15.59	-653500
1835-61-6	3-Chloro-1,2,4,5-tetrafluorobenzene	200	1500	4	17066000	921	40.956	-10.987	21450000	68	60	146.3	14.89	-653500
769-34-6	2,3-Dichloro-1,4,5-trifluorobenzene	200	1500	4	20430000	879	41.021	-11.063	24940000	66	58	155.9	16.22	-500600
2368-53-8	2,4-Dichloro-1,3,5-trifluorobenzene	200	1500	4	20430000	879	41.021	-11.063	24940000	66	58	155.9	15.52	-510200
43061-36-5	1,2,3-Trichloro-4,5-difluorobenzene	200	1500	4	10695000	825	40.288	-10.162	14710000	60	55	156.3	16.76	-339400
13656-67-2	1,2,4-Trichloro-3,5-difluorobenzene	200	1500	4	10695000	825	40.288	-10.162	14710000	60	55	156.3	16.76	-349000
43061-37-6	1,2,5-Trichloro-3,4-difluorobenzene	200	1500	4	10695000	825	40.288	-10.162	14710000	60	55	156.3	16.76	-338100
319-96-0	1,3,4-Trichloro-2,5-difluorobenzene	200	1500	4	10695000	825	40.288	-10.162	14710000	60	55	156.3	16.76	-346900
13656-49-0	1,3,5-Trichloro-2,4-difluorobenzene	200	1500	4	10695000	825	40.288	-10.162	14710000	60	55	156.3	16.06	-345600
43061-38-7	2,3,4-Trichloro-1,5-difluorobenzene	200	1500	4	10695000	825	40.288	-10.162	14710000	60	55	156.3	16.06	-348100
2691-93-2	1,2,3,4-Tetrachloro-5-fluorobenzene	200	1500	4	37304000	837	40.85	-10.841	41580000	63	57	189.5	17.63	-186500
319-95-9	1,2,3,5-Tetrachloro-4-fluorobenzene	200	1500	4	37304000	837	40.85	-10.841	41580000	63	57	189.5	17.63	-185200
319-97-1	1,2,4,5-Tetrachloro-3-fluorobenzene	200	1500	4	37304000	837	40.85	-10.841	41580000	63	57	189.5	16.93	-187300
608-93-5	Pentachlorobenzene	200	1500	4	2650000	1507	38.153	-7.781	3820000	67	39	111	16.1	-25200
2199-76-0	Pentachlorobenzene-d1	300	1000	4	490000	247	42.785	-14.083	-480000	149	49	-13.8	14.53	
87-86-5	Pentachlorophenol	298	1000	4	20639000	749	60.129	-9.976	72710000	25	360	585	20.79	-220100
363-72-4	1,2,3,4,5-Pentafluorobenzene	200	1500	4	7965000	1626	38.768	-8.374	6180000	131	32	29.6	12.93	-799800
771-61-9	Pentafluorophenol	298	1000	4	2297000	741	45.083	-13.252	7530000	36	72	230	16.17	-949200
3161-99-7	1,3,5-Hexatriyne	50	1500	3.5	211000	220	11.906	10.027	-1750000	19	81	1	8.46	665200
22311-25-7	1,2,3,4-Tetrabromobenzene	200	1500	4	114826000	907	40.87	-10.769	121260000	70	61	269.2	19.73	223100
634-89-9	1,2,3,5-Tetrabromobenzene	200	1500	4	114826000	907	40.87	-10.769	121260000	70	61	269.2	20.16	215600
636-28-2	1,2,4,5-Tetrabromobenzene	200	1500	4	114826000	907	40.87	-10.769	121260000	70	61	269.2	19.47	213100
36556-42-0	1-Chloro-2,3,4-trifluorobenzene	200	1500	4	80135000	1054	41.874	-11.93	88490000	86	66	150.8	14.84	-467800
2367-77-3	1-Chloro-2,3,5-trifluorobenzene	200	1500	4	80135000	1054	41.874	-11.93	88490000	86	66	150.8	14.84	-490200
2367-78-4	1-Chloro-2,4,5-trifluorobenzene	200	1500	4	80135000	1054	41.874	-11.93	88490000	86	66	150.8	14.84	-490200
39153-73-6	2-Chloro-1,3,4-trifluorobenzene	200	1500	4	80135000	1054	41.874	-11.93	88490000	86	66	150.8	14.84	-478700
2106-40-3	2-Chloro-1,3,5-trifluorobenzene	200	1500	4	80135000	1054	41.874	-11.93	88490000	86	66	150.8	14.14	-501300