CASRN	Chemical	Tmin	Tmax	a0	a1	a2	a3	a4	a5	a6	a7	I	J	Hf
6175-49-1	2-Dodecanone	200	1000	4	13521000	541	222.846	-232.706	534150000	284	207	1462.1	33.69	-342000
1534-27-6	3-Dodecanone	200	1000	4	8388000	446	207.257	-213.883	336400000	268	176	1050.3	29.5	-341000
6137-26-4	4-Dodecanone	200	1000	4	8352000	445	207.634	-213.21	339810000	268	176	1044.1	29.44	-341000
112-52-7	1-Chlorododecane	200	1500	4	2726000	264	111.537	10.849	-14350000	101	139	219.2	22.85	-255500
334-68-9	1-Fluorododecane	200	1500	4	2671000	262	113.4	8.322	-13290000	106	139	210.4	21.67	-403300
17302-37-3	2,2-Dimethyldecane	200	1500	4	358000	110	96.66	41.042	-88040000	272	20	-348	3.75	-237600
17312-44-6	2,3-Dimethyldecane	200	1500	4	1636000	381	72.448	75.723	-163710000	285	14	1034.7	29.37	-226100
2801-84-5	2,4-Dimethyldecane	200	1500	4	1394000	340	92.196	42.96	-83220000	242	38	927.5	27.94	-231900
112-40-3	Dodecane	200	1000	4	3420000	306	108.948	2.379	-22660000	100	149	578.3	21.96	-224000
7045-71-8	2-Methylundecane	200	1000	4	2614000	299	106.949	10.908	-30300000	133	122	685.9	24.22	-228700
1002-43-3	3-Methylundecane	200	1500	4	1026000	262	68.825	76.486	-163720000	281	11	772	25.82	-226200
112-53-8	1-Dodecanol	200	1500	4	3084000	298	98.738	20.419	-38520000	102	133	630.4	27.87	-369800
112-55-0	1-Dodecanethiol	273	1000	4	8144000	429	202.499	-163.319	222290000	218	181	1079.8	32.93	-186500
14402-50-7	2-Dodecanethiol	273	1000	4	9076000	449	207.181	-194.904	255050000	222	186	1010.2	32.54	
7289-44-3	2-Thiatridecane	273	1000	4	2082000	196	119.285	-17.527	-7470000	100	137	-825.9	7.8	-42600
19313-61-2	3-Thiatridecane	273	1000	4	2812000	243	113.286	-4.698	-14380000	82	149	-275.1	17.27	-43600
62103-66-6	4-Thiatridecane	273	1000	4	2812000	243	113.286	-4.698	-14380000	82	149	-275.1	17.27	-180900
16900-07-5	5-Thiatridecane	273	1000	4	2812000	243	113.286	-4.698	-14380000	82	149	-275.1	17.27	-181800
6294-31-1	7-Thiatridecane	273	1000	4	2812000	243	113.286	-4.698	-14380000	82	149	-275.1	16.58	-181800
10496-15-8	7,8-Dithiatetradecane	273	1000	4	3386000	267	119.355	-9.913	-13030000	89	144	78.1	23.07	-172600
376-03-4	Perfluorotridecane	200	1500	4	37280000	1608	98.633	19.657	-250000	64	17	-4288	46.96	-5820900
232-54-2	Benz[e]indene	50	1500	4	406000	270	64.717	12.077	-35260000	176	81	-2.1	13.39	250000
268-40-6	Benz[f]indene	298	1000	4	2873000	371	79.461	-12.156	4220000	38	195	-579.2	9.02	275000
86-73-7	Fluorene	298	1000	4	2216000	341	72.173	-0.092	-3210000	34	182	-526.7	8.44	213100
643-58-3	2-Methylbiphenyl	200	1500	4	971000	259	85.275	-10.1	-3520000	143	118	-128.2	13.11	193300
643-93-6	3-Methylbiphenyl	200	1500	4	1009000	265	82.979	-7.964	-4480000	132	123	-93.2	15.03	183500
644-08-6	4-Methylbiphenyl	200	1500	4	1009000	265	82.979	-7.964	-4480000	132	123	-93.2	14.34	183500
31032-94-7	2-Ethyl-3-Methylnaphthalene	298	1000	4	4527000	570	-67.503	97.64	-223640000	314	8	-907.6	34.69	65800
7372-86-3	2-Ethyl-6-Methylnaphthalene	298	1000	4	706000	204	81.287	2.955	-9950000	162	91	-4449	10.91	61300
17059-55-1	2-Ethyl-7-methylnaphthalene	298	1000	4	706000	204	81.287	2.955	-9950000	162	91	-4449	10.91	61300
2765-18-6	1-Propylnaphthalene	298	1000	4	1684000	460	-48.622	84.905	-149090000	274	10	-945.6	34.21	74700
2027-19-2	2-Propylnaphthalene	298	1000	4	172000	166	35.561	31.903	-70030000	267	18	-3141.7	20.13	73800
1078-71-3	Heptylbenzene	200	1500	4	779000	200	71.233	48.823	-101640000	227	48	163.2	17.66	-22100
26186-02-7	1-Tridecyne	200	1500	4	2941000	299	92.1	20.133	-43210000	118	120	673.7	24.83	37400
3922-24-5	1,1,1-Trichlorotridecane	200	1500	4	3946000	293	120.09	10.939	-17370000	88	141	414	28.68	-302300
62126-98-1	1,1,1-Trifluorotridecane	200	1500	4	3488000	283	121.737	8.835	-15440000	92	141	374.5	26.07	-903500
629-60-7	Tridecanenitrile	200	1500	4	3705000	321	251.141	-233.595	604670000	364	118	574.4	28.73	-88400
5617-41-4	Heptylcyclohexane	50	3000	4	1465000	287	132.575	-30.982	-48340000	247	74	610.2	23.61	-201000
1795-20-6	Octylcyclopentane	50	3000	4	1451000	242	132.048	-16.957	-30020000	237	75	42.8	20.66	-178100
2437-56-1	1-Tridecene	200	1500	4	13838000	536	104.327	14.116	-28200000	23	228	1384.7	33.9	-121000
821-93-2	1,1-Dichlorotridecane	200	1500	4	3444000	279	120.769	10.798	-15310000	93	141	341	27.55	-288000
62127-02-0	1,1-Difluorotridecane	200	1500	4	3149000	271	122.28	9.014	-15580000	101	139	314.6	25.39	-657600
1534-26-5	3-Tridecanone	200	1000	4	9516000	453	226.018	-236.401	373410000	266	179	1207.5	32.21	-356600
26215-90-7	4-Tridecanone	200	1000	4	9750000	457	225.987	-234.178	375500000	264	181	1217.7	32.33	-356600
822-13-9	1-Chlorotridecane	200	1500	4	3161000	272	121.137	11.115	-15270000	98	142	314.6	25.07	-271500
1536-21-6	1-Fluorotridecane	200	1500	4	2938000	263	122.293	9.719	-15080000	105	139	267.4	23.31	-418900
17312-64-0	2,2-Dimethylundecane	200	1500	4	375000	101	103.892	42.809	-101980000	278	16	-535.1	-0.57	-253300
17312-77-5	2,3-Dimethylundecane	200	1500	4	1757000	361	77.768	80.605	-173890000	278	17	1138.7	31.52	-241700
17312-80-0	2,4-Dimethylundecane	200	1500	4	1417000	320	96.343	50.021	-97810000	243	35	999.8	29.66	-247500
1560-97-0	2-Methyldodecane	200	1000	4	2911000	298	116.534	8.701	-31790000	130	124	756.5	25.94	-244300
17312-57-1	3-Methyldodecane	200	1500	4	1370000	276	76.411	77.756	-165040000	265	22	923.3	28.65	-241800
629-50-5	Tridecane	200	1000	4	3603000	303	113.075	10.037	-31510000	101	144	674.8	23.92	-239600
112-70-9	1-Tridecanol	200	1500	4	3299000	298	103.285	27.152	-48210000	107	128	747.8	30.1	-385500
3698-89-3	2-Thiatetradecane	273	1000	4	2348000	200	128.621	-19.168	-8760000	97	139	-848.7	8.64	-46300
66577-30-8	3-Thiatetradecane	273	1000	4	3039000	241	121.976	-5.096	-16290000	81	149	-316.8	17.72	-47400
66577-31-9	4-Thiatetradecane	273	1000	4	3039000	241	121.976	-5.096	-16290000	81	149	-316.8	17.72	-196600
66577-32-0	5-Thiatetradecane	273	1000	4	3039000	241	121.976	-5.096	-16290000	81	149	-316.8	17.72	-197400
19484-26-5	1-Tridecanethiol	273	1000	4	8996000	432	219.781	-183.139	245210000	218	182	1213.7	35.45	-202100
62155-03-7	2-Tridecanethiol	273	1000	4	9898000	449	224.873	-214.316	281360000	221	187	1127.1	34.9	
307-62-0	Perfluorotetradecane	200	1500	4	37505000	1599	52.872	74.003	-1070000	4	37	-4223.7	64.69	-6230400
187-78-0	Pyracyclene	298	1000	4	95000	551	42.562	23.63	6680000	48	27	-420.1	7.7	393000
120-12-7	Anthracene	50	1500	4	291000	240	68.837	10.562	-38900000	192	69	2	12.46	257200
85-01-8	Phenanthrene	50	1500	4	317000	244	68.63	11.017	-37850000	189	70	2	13.12	236400
1719-06-8	Anthracene-d10	50	1500	4	437000	251	98.677	-37.322	11370000	175	85	-3.8	12.66	214600
58746-82-0	1,2-Dihydroanthracene	50	1500	4	301000	228	74.28	14.049	-49960000	210	65	5.1	14.65	249200
5910-32-7	1,4-Dihydroanthracene	50	1500	4	238000	204	76.062	11.174	-50890000	224	58	10.4	13.44	243600
613-31-0	9,10-Dihydroanthracene	50	1500	4	228000	209	75.197	12.392	-51500000	220	59	7.1	13.37	195700
56179-83-0	1,2-Dihydrophenanthrene	50	1500	4	311000	229	75.372	12.238	-48070000	211	65	4.7	14.62	249000
20244-28-4	1,4-Dihydrophenanthrene	50	1500	4	246000	205	76.461	10.526	-49810000	224	58	7	14.08	242400
38399-10-9	3,4-Dihydrophenanthrene	50	1500	4	309000	228	75.449	12.122	-47870000	211	65	3.9	14.6	249000
776-35-2	9,10-Dihydrophenanthrene	50	1500	4	279000	219	75.159	12.457	-49080000	214	62	7.5	13.98	190900
567-79-3	Pyracene	298	1000	4	3540000	402	86.795	-5.404	-2140000	48	192	-425	9.48	197000
605-39-0	2,2'-Dimethylbiphenyl	200	1500	4	1276000	273	99.103	-15.591	-1560000	171	109	-75	14.64	168100
611-43-8	2,3'-Dimethylbiphenyl	200	1500	4	1224000	269	98.539	-15.105	-980000	160	114	-78.4	15.93	166200
3864-18-4	2,3-Dimethylbiphenyl	200	1500	4	1276000	273	99.103	-15.591	-1560000	171	109	-4401.3	14.64	168100
611-61-0	2,4'-Dimethylbiphenyl	200	1500	4	1224000	269	98.539	-15.105	-980000	160	114	-78.4	15.24	166200
4433-10-7	2,4-Dimethylbiphenyl	200	1500	4	1231000	270	97.895	-14.01	-2010000	159	114	-74.9	15.29	166200
7372-85-2	2,5-Dimethylbiphenyl	200	1500	4	1224000	269	98.539	-15.105	-980000	160	114	-78.4	15.24	166200
3976-34-9	2,6-Dimethylbiphenyl	200	1500	4	1276000	273	99.103	-15.591	-1560000	171	109	-75	13.95	168100
612-75-9	3,3'-Dimethylbiphenyl	200	1500	4	1191000	268	95.038	-10.878	-4090000	151	116	-48.5	17.04	156500
4433-11-8	3,4-Dimethylbiphenyl	200	1500	4	1405000	282	98.015	-14.95	-1580000	169	111	-50	15.79	157700
7383-90-6	3,4-Dimethylbiphenyl	200	1500	4	1184000	267	95.148	-11.056	-3840000	151	116	-51.9	17	156500
17057-88-4	3,5-Dimethylbiphenyl	200	1500	4	1191000	268	95.038	-10.878	-4090000	151	116	-48.5	16.35	156500
613-33-2	4,4'-Dimethylbiphenyl	200	1500	4	1191000	268	95.038	-10.878	-4090000	151	116	-48.5	15.66	156500
1812-51-7	2-Ethylbiphenyl	200	1500	4	1190000	250	94.876	-9.934	-3920000	134	122	-210.6	13.74	178000
5668-93-9	3-Ethylbiphenyl	200	1500	4	1185000	251	92.55	-7.755	-5020000	126	125	-180.4	15.57	168200
5707-44-8	4-Ethylbiphenyl	200	1500	4	1185000	251	92.55	-7.755	-5020000	126	125	-180.4	14.88	168200
2141-42-6	1,2,3,4-Tetrahydroanthracene	50	1500	4	326000	226	79.902	17.123	-58980000	221	63	6.1	14.06	136400
1013-08-7	1,2,3,4-Tetrahydrophenanthrene	50	1500	4	333000	226	81.073	15.189	-56790000	222	63	5.9	14.7	136200
1634-09-9	1-Butylnaphthalene	298	1000	4	224000	108	6.584	56.141	-95350000	257	15	-3291.3	15.68	53000
1134-62-9	2-Butylnaphthalene	298	1000	4	8141000	605	-146.456	152.844	-350460000	317	9	464.9	47.77	52300
64363-88-8	1,2,3,4,4a-alpha,9,9a-alpha,10-Octahydroanthracene	50	1500	4	322000	213	92.183	20.841	-71060000	233	60	13.8	14.98	25700
1079-71-6	1,2,3,4,5,6,7,8-Octahydroanthracene	50	1500	4	394000	221	90.679	23.658	-82770000	238	62	10.5	15.87	20600
20480-66-4	1,2,3,4,4a-alpha-9,10,10a-alpha-Octahydrophenanthrene	50	1500	4	308000	210	93.205	19.238	-70040000	237	58	13.9	14.91	29500
20480-67-5	1,2,3,4,4a-alpha-9,10,10a-beta-Octahydrophenanthrene	50	1500	4	406000	227	93.655	18.449	-67860000	232	62	9.8	14.94	27100
5325-97-3	1,2,3,4,5,6,7,8-Octahydrophenanthrene	50	1500	4	377000	218	91.196	22.898	-83070000	241	61	9.9	15.99	23900
77341-12-9	trans-1,2,3,4,4a,9,9a,10-Octahydroanthracene	50	1500	4	399000	227	91.574	21.884	-71640000	230	62	10.7	15.03	23400
2189-60-8	Octylbenzene	200	1500	4	973000	213	77.161	52.903	-112700000	225	49	291	20.22	-37800
642-32-0	1,2,3,4-Tetraethylbenzene	298	1000	4	12571000	517	155.798	-25.924	13250000	88	217	-5696	23.48	-123300
38842-05-6	1,2,3,5-Tetraethylbenzene	298	1000	4	61381000	748	61.805	52.345	62370000	48	58	-5421.6	25.16	-123200
635-81-4	1,2,4,5-Tetraethylbenzene	298	1000	4	19262000	600	109.867	6.088	-8030000	40	258	-5504.8	25.57	-123300
2109-05-9	cis-cisoid-4a,10a-trans-Perhydroanthracene	50	1500	4	525000	240	103.025	40.095	-125900000	249	65	11.9	15.04	-148600
1755-19-7	trans-cisoid-trans-Perhydroanthracene	50	1500	4	586000	249	102.91	40.287	-126300000	248	66	9.8	13.7	-162000
27389-76-0	trans-syn-cis-Perhydrophenanthrene	298	1000	4	2395000	271	135.654	-12.544	7950000	92	177	-1166.6	4.14	-147000
27425-35-0	4a-alpha,4b-alpha,8a-alpha,10a-beta-Tetradecahydrophenanthrene	50	1500	4	551000	243	100.99	43.639	-128880000	247	65	10	14.95	-146700
27389-73-7	4a-alpha,4b-beta,8a-alpha,10a-alpha-Tetradecahydrophenanthrene	50	1500	4	512000	238	103.155	39.892	-127020000	251	64	10.6	14.99	-144700
2108-89-6	4a-alpha,4b-beta,8a-alpha,10a-beta-Tetradecahydrophenanthrene	50	1500	4	595000	250	102.658	40.643	-127180000	248	66	8.8	14.36	-158800
765-10-6	1-Tetradecyne	200	1500	4	2962000	292	97.07	26.021	-54680000	129	111	768.5	26.75	21700
62108-58-1	1,1,1-Trichlorotetradecane	200	1500	4	4224000	292	128.743	12.719	-19300000	88	141	473.8	30.36	-318000
62126-99-2	1,1,1-Trifluorotetradecane	200	1500	4	5256000	333	120.839	25.767	-29580000	75	154	746.7	31.84	-919100
629-63-0	Tetradecanenitrile	200	1500	4	4015000	320	272.605	-254.711	663670000	365	118	662.4	30.72	-104100
2882-98-6	Nonylcyclopentane	50	3000	4	1649000	244	143.209	-19.276	-29840000	237	74	42.3	22.05	-193700
1795-15-9	Octylcyclohexane	50	3000	4	1675000	289	142.724	-34.777	-53240000	246	74	729.7	25.9	-217000
1120-36-1	1-Tetradecene	200	1500	4	41762000	790	228.928	-200.387	531830000	261	277	2601.8	44.15	-136700
62017-18-9	1,1-dichlorotetradecane	200	1500	4	3722000	279	129.729	12.098	-17020000	93	141	400.5	29.21	-303680
62127-03-1	1,1-Difluorotetradecane	200	1500	4	3431000	272	130.542	11.434	-18120000	100	139	380.3	27.13	-673200
629-23-2	3-Tetradecanone	200	1000	4	4662000	333	263.617	-299.726	544430000	342	124	918.4	29.74	-372300
26496-20-8	4-Tetradecanone	200	1000	4	4508000	328	266.674	-302.158	575480000	348	122	891	29.42	-372300
2425-54-9	1-Chlorotetradecane	200	1500	4	6567000	413	122.075	28.132	-51730000	124	141	1671.6	40.17	-287500
593-33-9	1-Fluorotetradecane	200	1500	4	3208000	264	131.007	11.406	-17080000	104	139	325.9	24.96	-434600
49598-54-1	2,2-Dimethyldodecane	200	1500	4	1036000	214	101.017	60.262	-121780000	248	33	569.6	22.6	-269000
6117-98-2	2,3-Dimethyldodecane	200	1500	4	2140000	350	87.389	78.35	-160020000	251	34	1278.8	34.18	-257400
6117-99-3	2,4-Dimethyldodecane	200	1500	4	1444000	303	103.651	51.864	-107220000	244	34	1070.2	31.36	-263200
1560-96-9	2-Methyltridecane	200	1000	4	3285000	300	126.147	6.427	-33100000	126	127	833.8	27.78	-260000
6418-41-3	3-Methyltridecane	200	1500	4	1615000	271	86.652	74.883	-149250000	240	37	1006.1	30.54	-257400
629-59-4	Tetradecane	200	1000	4	15886000	545	197.076	-201.252	97670000	166	216	1764.9	36.74	-255300
112-72-1	1-Tetradecanol	200	1500	4	3903000	308	112.173	26.613	-49270000	100	134	860.4	32.45	-401200
2079-95-0	1-Tetradecanethiol	273	1000	4	9834000	434	237.424	-203.124	270510000	218	183	1341.7	37.9	-217800
62155-04-8	2-Tetradecanethiol	273	1000	4	10719000	450	241.728	-234.189	301660000	221	187	1267.2	37.43	
62155-09-3	2-Thiapentadecane	273	1000	4	2418000	193	139.586	-23.586	-8360000	100	137	-1011.9	6.88	-50000
2851-83-4	3-Thiapentadecane	273	1000	4	3089000	231	133.168	-9.871	-15470000	84	147	-454.5	16.67	-51100
66826-84-4	4-Thiapentadecane	273	1000	4	3089000	231	133.168	-9.871	-15470000	84	147	-454.5	16.67	-212200
19313-57-6	5-Thiapentadecane	273	1000	4	3089000	231	133.168	-9.871	-15470000	84	147	-454.5	16.67	-213000
629-65-2	8-Thiapentadecane	273	1000	4	3089000	231	133.168	-9.871	-15470000	84	147	-454.5	15.98	-213000
10496-16-9	8,9-Dithiahexadecane	273	1000	4	3347000	235	142.782	-21.296	-8110000	89	143	-390.3	18.91	-203900
2264-03-1	Perfluoropentadecane	200	1500	4	46798000	1602	97.799	39.497	-2110000	50	22	-4704.5	56.28	-6639800
203-64-5	4H-Cyclopenta[def]phenanthrene	298	1000	4	3050000	383	82.205	-4.848	-3110000	42	184	-490.6	9.41	210000
13352-41-5	2,3-Benzo-1,6-methano(10)-annulene	298	1000	4	3791000	406	103.985	-27.342	16900000	100	186	-438.4	11.22	
256-61-1	3,4-Benzo-1,6-methano(10)-annulene	298	1000	4	3468000	389	103.162	-25.775	16250000	97	184	-487	10.78	
86-89-5	1-Pentylnaphthalene	298	1000	4	12644000	556	107.52	-0.02	-6620000	45	228	-4829.6	23.19	32400
93-22-1	2-Pentylnaphthalene	298	1000	4	9492000	502	195.346	-58.047	44820000	117	206	-5038.5	22.07	31700
1081-77-2	Nonylbenzene	200	1500	4	1167000	222	80.275	61.753	-128440000	224	48	397.6	22.46	-53500
765-13-9	1-Pentadecyne	200	1500	4	3185000	292	104.791	27.322	-61610000	133	109	872.9	28.84	6000
62108-59-2	1,1,1-Trichloropentadecane	200	1500	4	4498000	291	137.45	14.418	-21140000	88	141	532.2	32.01	-333700
62127-00-8	1,1,1-Trifluoropentadecane	200	1500	4	4302000	291	139.143	12.279	-19530000	89	144	548.4	30.18	-934800
18300-91-9	Pentadecanenitrile	200	1500	4	4409000	322	293.339	-274.813	715020000	364	119	765.9	32.91	-119900
1795-21-7	Decylcyclopentane	50	3000	4	1835000	245	153.582	-20.416	-30970000	236	73	42.9	23.43	-209300
2883-02-5	Nonylcyclohexane	200	1500	4	44855000	788	247.034	-216.967	583890000	261	277	2834.7	47.41	-232800
822-15-1	1,1-Dichloropentadecane	200	1500	4	4064000	281	139.786	11.656	-17630000	93	142	470.5	31.04	-319300
62127-04-2	1,1-Difluoropentadecane	200	1500	4	3717000	273	139.553	12.657	-20050000	100	139	446	28.88	-688900
925-51-9	4-Pentadecanone	200	1000	4	11447000	459	267.818	-286.286	484530000	271	181	1505.9	37.43	-387900
4862-03-7	1-Chloropentadecane	200	1500	4	3758000	274	139.522	12.95	-17730000	96	143	431.1	28.41	-303400
1555-17-5	1-Fluoropentadecane	200	1500	4	3461000	264	140.75	11.448	-17890000	104	139	375.9	26.5	-450300
61869-04-3	2,2-Dimethyltridecane	200	1500	4	662000	144	114.395	52.477	-124790000	265	22	23.5	13.34	-284600
18435-20-6	2,3-Dimethyltridecane	200	1500	4	2193000	340	87.186	92.59	-191730000	260	26	1354.1	35.92	-273000
61868-05-1	2,4-Dimethyltridecane	200	1500	4	1548000	294	108.327	58.056	-121420000	244	33	1146.5	33.12	-278800
1560-95-8	2-Methyltetradecane	200	1000	4	3594000	300	134.985	5.586	-35780000	124	128	912.1	29.61	-275600
18435-22-8	3-Methyltetradecane	200	1500	4	2275000	303	77.666	103.774	-198380000	244	33	1210.3	33.96	-273100
629-62-9	Pentadecane	200	1000	4	16096000	534	258.664	-259.613	400320000	238	207	1908.7	39.26	-270900
629-76-5	1-pentadecanol	200	1500	4	3741000	296	116.564	33.45	-61710000	113	123	939.3	34.1	-417000
25276-70-4	1-Pentadecanethiol	273	1000	4	10693000	436	255.162	-223.168	296620000	218	184	1469.5	40.36	-233400
62155-05-9	2-Pentadecanethiol	273	1000	4	11555000	450	259.524	-253.433	328860000	220	188	1382.6	39.78	
7289-45-4	2-Thiahexadecane	273	1000	4	2665000	197	150.586	-28.215	-7970000	100	138	-980.4	8.33	-53800
66271-81-6	3-Thiahexadecane	273	1000	4	3366000	234	143.16	-12.62	-16550000	85	147	-398	18.32	-54900
66271-82-7	4-Thiahexadecane	273	1000	4	3366000	234	143.16	-12.62	-16550000	85	147	-398	18.32	-227900
66271-83-8	5-Thiahexadecane	273	1000	4	3366000	234	143.16	-12.62	-16550000	85	147	-398	18.32	-228700
355-49-7	Perfluorohexadecane	200	1500	4	44515000	1606	113.772	31.649	-210000	52	20	-5148.5	57.52	-7049200
202-03-9	Aceanthrylene	298	1000	4	3060000	373	85.249	-4.134	-5140000	53	175	-415.1	11.17	369000
201-06-9	Acephenanthrylene	298	1000	4	2845000	369	85.646	-4.931	-5320000	62	167	-350.4	11.61	343000
206-44-0	Fluoranthene	50	1500	4	457000	259	79.95	3.669	-29460000	175	78	-1.9	13.62	318000
129-00-0	Pyrene	298	1500	4	6973000	507	94.742	-20.14	4270000	50	211	-326.5	11.18	254700
641-48-5	Aceanthrene	298	1000	4	2824000	337	91.519	-2.997	-3880000	47	177	-587.9	9.79	275000
6232-48-0	Acephenanthrene	298	1000	4	2914000	341	92.286	-4.306	-3020000	45	180	-605.2	9.68	251000
104-72-3	Decylbenzene	200	1500	4	1384000	231	85.563	66.936	-140260000	222	49	516.5	24.84	-69200
605-01-6	Pentaethylbenzene	298	1000	4	3001000	280	121.458	6.735	-3600000	108	124	-7057.5	19.16	-175200
629-74-3	1-Hexadecyne	200	1500	4	3425000	293	108.25	35.78	-73030000	135	106	980.5	31.01	-9700
62108-60-5	1,1,1-Trichlorohexadecane	200	1500	4	4818000	291	147.701	13.653	-21290000	88	142	588.1	33.66	-349400
62127-01-9	1,1,1-Trifluorohexadecane	200	1500	4	4386000	284	149.696	11.014	-19390000	92	142	561.5	31.21	-950500
629-79-8	Hexadecanenitrile	200	1500	4	4774000	322	315.416	-296.334	780350000	364	120	846.2	34.87	-135600
1795-16-0	Decylcyclohexane	50	3000	4	2082000	291	161.992	-40.685	-64640000	243	74	971.6	30.45	-248500
629-73-2	1-Hexadecene	200	1500	4	19809000	562	127.058	20.486	-38920000	17	235	1966.2	42.95	-168200
6785-23-5	Undecylcyclopentane	50	3000	4	2033000	246	165.307	-23.672	-28750000	235	73	46.1	24.78	-225000
62017-19-0	1,1-Dichlorohexadecane	200	1500	4	4323000	280	149.17	12.271	-18670000	93	142	518.9	32.56	-335000
62127-05-3	1,1-Difluorohexadecane	200	1500	4	3984000	273	147.865	14.992	-22310000	99	139	502.9	30.5	-704600
18787-65-0	4-Hexadecanone	200	1500	4	4578000	300	147.998	-15.168	-28590000	118	137	800.4	30.16	-403600
4860-03-1	1-Chlorohexadecane	200	1500	4	4031000	274	149.019	13.388	-18780000	96	143	485.2	30.01	-319400
408-38-8	1-Fluorohexadecane	200	1500	4	3775000	266	149.755	12.661	-19180000	102	140	437.2	28.21	-466000
59222-86-5	2,2-Dimethyltetradecane	200	1500	4	1232000	211	111.94	69.644	-148800000	249	31	666	25.25	-300200
18435-23-9	2,3-Dimethyltetradecane	200	1500	4	2390000	332	96.081	91.676	-191510000	251	32	1463.4	38.12	-288700
61868-06-2	2,4-Dimethyltetradecane	200	1500	4	1675000	288	112.234	65.538	-137190000	244	32	1221.9	34.86	-294500