CASRN	Chemical	Tmin	Tmax	a0	a1	a2	a3	a4	a5	a6	a7	I	J	Hf
10097-32-2	Bromine monatomic	50	5000	2.5	3979000	1021	1.913	-1.928	7480000	140	28	-7.3	6.72	117900
7726-95-6	Bromine	50	5000	3.5	220000	481	4.667	-4.176	41110000	623	41	-0.4	8.91	45700
7440-44-0	Carbon monatomic	50	5000	2.5	1000	10	2.441	-176.087	792250000	5180	1345	-56.5	-5.22	711200
12070-15-4	Carbon diatomic	100	4000	3.5	281426000	1505	1.326	0.92	287550000	116	102	9.1	3.05	829300
12075-35-3	Carbon triatomic	100	4000	3.5	50483000	658	2.81	0.634	52820000	52	44	55.7	6.47	811500
12184-80-4	Carbon tetraatomic	50	4000	3.5	1759000	802	8.416	-1.1	-11800000	309	77	-0.4	6.37	964100
12595-82-3	Carbon pentaatomic	50	4500	3.5	2459000	750	12.91	-2.806	-9060000	251	107	0.8	7.4	972400
22537-15-1	Chlorine monatomic	50	5000	2.5	1066000	986	-0.248	0.274	290000	28	84	0	5.59	119600
7782-50-5	Chlorine diatomic	50	5000	3.5	574000	784	4.064	-3.157	50780000	723	123	-0.2	6.61	0
14762-94-8	Fluorine monatomic	50	5000	2.5	315000	592	0.021	-0.024	270000	80	26	0.4	4.65	77300
7782-41-4	Fluorine	50	5000	3.5	1807000	1401	2.337	-10.423	-56500000	1253	17	-2.2	4.36	0
12385-13-6	Hydrogen monatomic	50	5000	2.5	0	0	0	0	0	0	0	0	-0.49	216000
16873-17-9	Deuterium monatomic	50	5000	2.5	0	0	0	0	0	0	0	0	0.51	219800
1333-74-0	Hydrogen diatomic (equilibrium)	50	5000	4.7	2311000	1150	-10.157	11.235	-1640000	39	41	-70.3	-9.03	0
13983-20-5	Deuterium hydride	50	5000	3.5	56000	1199	4.844	-0.575	334380000	1613	493	-21.3	-2.64	300
7782-39-0	Deuterium diatomic (equilibrium)	50	5000	3.5	66000	1232	4.544	-2.327	195010000	1219	433	-14.1	-2.51	0
14362-44-8	Iodine monatomic	50	5000	2.5	4690000	1292	-1.446	2.092	2610000	61	117	0.4	7.5	107200
7553-56-2	Iodine	50	1100	3.5	115000	316	1.27	0	0	3	111	1.1	10.38	65500
17778-88-0	Nitrogen monatomic	50	5000	2.5	1000	1098	0.087	12.537	-87680000	273	1923	0.1	4.19	470800
7727-37-9	Nitrogen diatomic	50	5000	3.5	7615000	3136	2.986	-2.963	165120000	1784	484	-1.3	3.1	0
12596-60-0	Nitrogen triatomic	50	5000	4	1095000	2778	5.771	-2.76	3120000	88	204	-53.6	3.99	442800
17778-80-2	Oxygen monatomic	50	5000	2.5	23000	188	-0.06	3.615	-19550000	2661	1	109	4.57	246800
7782-44-7	Oxygen	50	5000	3.5	312000	1442	3.594	-1.895	38180000	559	267	-0.6	4.73	0
10028-15-6	Ozone	50	5000	4	3613000	1356	12.875	-10.92	328350000	1266	46	132.6	5.72	145300
7704-34-9	Sulfur monatomic	50	5000	2.5	330000	624	-1.062	1.979	-3830000	267	96	0.1	5.66	274700
23550-45-0	Sulfur diatomic	50	5000	3.5	1396000	1089	2.451	-0.59	-3740000	555	296	20.1	7.36	128200
12597-03-4	Sulfur triatomic	50	1500	4	1425000	832	3.521	-0.262	-2940000	259	68	0.2	9.08	134700
19269-85-3	Sulfur tetraatomic	50	1500	4	633000	598	7.729	-1.636	-680000	119	39	-0.8	11.96	140200
13798-23-7	Cyclohexasulfur	50	1500	4	1584000	588	16.061	-4.064	1110000	63	29	1.3	11.41	106900
21459-04-1	Cycloheptasulfur	50	1500	4	1557000	563	19.987	-4.979	1040000	57	27	0.4	13.99	118400
10544-50-0	Cyclooctasulfur	50	1500	4	1730000	537	23.798	-5.758	1310000	56	14	10.8	13.1	106800
15656-19-6	Bromine monoxide	50	3000	3.5	809000	970	1.131	0.345	-1350000	175	190	-0.6	8.57	133400
7616-94-6	Perchloryl flouride	298	1000	4	16919000	3557	7.046	1.913	-11510000	203	14	-1644.9	8.41	-27100
2696-92-6	Nitrosyl chloride	298	1000	4	35989000	2847	14.491	-10.37	159890000	525	8	-1378.1	7.69	52600
13444-90-1	Nitryl chloride	298	1000	4	51909000	3237	28.627	-24.527	366020000	627	10	-1483.8	8.39	13100
14989-30-1	Chlorine monoxide	50	3000	3.5	350000	1061	1.114	0.213	-590000	58	196	-0.3	7.26	102000
10049-04-4	Chlorine dioxide	50	3000	4	765000	720	3.565	-0.052	-1550000	52	201	1.2	7.61	105000
7791-21-1	Dichlorine oxide	50	1500	4	1097000	957	4.219	-1.283	930000	135	40	0.2	8.35	82100
7719-09-7	Thionyl chloride	298	1000	4	72210000	1954	36.058	-45.644	179880000	256	58	-1710.2	11.54	-211600
7791-25-5	Sulphuryl chloride	298	1000	4	123004000	2698	55.196	-50.847	597100000	490	10	-1920.9	10.66	-357200
10025-67-9	Sulfur monochloride	298	1000	4	136873000	2630	52.438	-46.109	608900000	476	8	-1894.8	11.71	-19400
7789-25-5	Nitrosyl flouride	298	1000	4	36983000	3441	13.494	-9.123	200950000	621	36	-1298.1	6.54	-65600
10022-50-1	Nitryl flouride	298	1000	4	15934000	1331	3.946	3.503	8780000	40	134	-1349.1	7.87	-79400
12061-70-0	Oxygen fluoride	50	3000	3.5	463000	1161	1.082	0.36	-760000	73	203	-0.3	6.15	109000
15499-23-7	Dioxygen fluoride	50	3000	4	413000	617	3.473	-0.29	-4010000	259	54	0.6	6.95	15200
7783-41-7	Oxygen difluoride	50	3000	4	1021000	1039	3.337	0.595	-2110000	200	61	0.5	6.42	27000
7783-44-0	Dioxygen difluoride	50	1500	4	293000	669	8.173	-2.263	-650000	150	27	-0.2	8.11	21700
7783-60-0	Sulfur tetraflouride	298	1000	4	210405000	3652	63.612	-44.636	1218900000	669	14	-1753.5	9.31	-728300
14696-98-1	Iodine monoxide	50	3000	3.5	709000	967	1.081	0.408	-1920000	283	96	0.2	9.4	177000
10102-43-9	Nitrogen oxide (Nitric oxide)	50	5000	3.5	12000	128	4.09	-4.848	72740000	741	277	1.3	4.72	89700
10102-44-0	Nitrogen dioxide	50	5000	4	3289000	1200	-2.439	12.257	-40590000	299	127	4.9	5.98	35900
12033-49-7	Nitrogen trioxide	50	5000	4	4501000	1266	7.926	-1.906	-2590000	293	98	1	7.06	77400
10024-97-2	Dinitrogen oxide (Nitrous oxide)	50	5000	4	3254000	1264	2.223	3.27	-30160000	386	152	-83.4	3.49	85500
16824-89-8	Dinitrogen dioxide	50	1500	4	4934000	861	17.07	-13.792	15640000	125	25	1.1	7.2	171000
10544-73-7	Dinitrogen trioxide	50	5000	4	822000	517	13.716	-5.553	4370000	110	2	0.9	9.4	89200
10544-72-6	Dinitrogen tetroxide	50	5000	4	10341000	571	19.148	-8.225	14690000	65	22	10.3	8.86	18200
10102-03-1	Dinitrogen pentoxide	50	1500	4	73000	129	19.421	-6.257	-2290000	146	39	-99.7	10.52	21400
13827-32-2	Sulfur monoxide	50	5000	3.5	11167000	1577	-0.038	2.375	9360000	138	95	-0.9	6.74	6300
20901-21-7	Disulfur oxide	50	5000	4	314000	690	2.891	1.053	-4110000	217	39	0.3	8.62	-39800
7446-09-5	Sulfur dioxide	50	5000	4	854000	802	2.903	1.709	-3910000	70	211	1.6	6.73	-294300
7446-11-9	Sulfur trioxide	50	5000	4	695000	710	6.227	1.349	-9060000	215	76	0	7.09	-390000
10035-10-6	Hydrogen bromide	50	5000	3.5	2128000	2672	0.934	0.862	-5910000	123	487	-3.7	3.96	-144400
13536-59-9	Hydrogen bromide-d	50	3000	3.5	3615000	2477	0.047	1.447	120000	86	106	0.3	4.65	-29300
7647-01-0	Hydrogen chloride	50	5000	3.5	33000	1290	0.811	1.001	-9000000	185	415	-5.2	2.49	-92100
7698-05-7	Hydrogen chloride-d	50	5000	3.5	5496000	2870	0.04	1.537	160000	154	97	-1.8	3.24	-93100
7790-92-3	Hypochlorous acid	50	3000	4	2016000	1151	4.702	-2.41	-310000	439	270	-0.2	5.51	-75800
7664-39-3	Hydrogen fluoride	50	5000	3.5	19000	1152	0.582	1.568	-20840000	301	505	-10	0.96	-273300
14333-26-7	Hydrogen fluoride-d	50	5000	3.5	3000	594	0.021	2.225	-26170000	482	209	-5.5	1.67	-275700
14034-79-8	Hypofluorous acid	50	3000	4	2807000	1374	3.332	0.131	-15000000	355	299	-0.2	4.97	-95400
10034-85-2	Hydrogen iodide	50	3000	3.5	1102000	2211	0.802	1.234	-4170000	73	403	-2.7	4.9	28700
14104-45-1	Hydrogen iodide-d	50	3000	3.5	2000	455	0.741	1.022	-2850000	110	222	-1.8	5.59	28400
13774-92-0	Imidogen	50	3000	3.5	97000	1575	4.501	2.08	238940000	1270	468	-7.6	1.86	356500
15123-00-9	Imidogen-d	50	3000	3.5	729000	2078	3.621	-3.759	66880000	793	400	-4	2.58	355400
7697-37-2	Nitric acid	298	1000	4	2300000	1634	17.425	-13.618	17530000	308	69	-1424.4	8.2	-133900
7782-79-8	Hydrogen azide	50	1500	4	247000	642	11.807	-8.86	18190000	385	98	-0.4	5.43	300400
14989-19-6	Hydrogen azide-d	50	1500	4	703000	687	11.281	-8.852	9200000	333	139	-1.4	5.81	296900
3352-57-6	Hydroxyl	50	5000	3.5	17000	196	4.699	-2.156	345910000	1604	489	-28.3	1.78	38700
13587-54-7	Hydroxyl-d	50	5000	3.5	16000	162	4.317	-3.624	147230000	1073	376	-19.1	2.32	36500
3170-83-0	Hydroperoxo	50	5000	4	6029000	1739	10.235	-15.504	275170000	1281	412	0.6	4.72	5000
13587-55-8	Hydroperoxo-d	50	5000	4	1572000	1316	7.861	-6.373	51290000	664	191	-0.4	5.15	1400
13940-21-1	Sulfur monohydride	50	5000	3.5	152000	437	3.498	-3.771	60920000	771	424	-4.1	3.13	138700
13780-23-9	Sulfur monohydride-d	50	5000	3.5	176000	469	3.974	-4.257	60590000	645	329	-0.4	3.87	137900
13770-40-6	Amidogen	50	3000	4	880000	1711	0.39	7.598	-76880000	665	64	1.7	0.64	191600
15117-84-7	Amidogen-d2	50	3000	4	1545000	1356	-1.096	8.054	-50700000	427	107	-0.4	1.75	186600
7732-18-5	Water	50	5000	4	870000	1646	3.111	1.728	-54010000	559	304	-3.1	-0.1	-238900
14940-63-7	Water-d	50	5000	4	2045000	2020	1.749	3.736	-59640000	571	180	0.1	1.19	-242400
7789-20-0	Water-d2	50	5000	4	581000	1273	2.589	2.311	-25190000	362	228	-2.2	1.04	-246300
7722-84-1	Hydrogen peroxide	50	3000	4	10435000	1360	6.005	0.951	14950000	162	45	7.4	4.67	-130300
6909-54-2	Hydrogen-d2 peroxide	50	3000	4	11967000	932	7.571	-1.282	16080000	95	44	0.7	5.24	-138600
7783-06-4	Hydrogen sulfide	50	5000	4	1090000	1553	1.845	4.965	-36440000	381	203	-0.1	1.93	-17700
13762-18-0	Hydrogen sulfide-d	50	5000	4	979000	1543	2.02	3.437	-30190000	454	100	1.8	3.21	-18800
13536-94-2	Hydrogen sulfide-d2	50	5000	4	371000	1031	1.815	3.863	-20930000	336	104	1.2	3.03	-21100
13465-07-1	Dihydrogen disulfide	50	5000	4	12006000	3402	4.727	0.94	-1580000	103	68	0.4	6.65	21200
7664-41-7	Ammonia	50	3000	4	4830000	1727	1.385	8.872	-207780000	828	20	-4	0.31	-39000
13550-49-7	Ammonia-d3	50	3000	4	3630000	1456	2.186	7.469	-110850000	631	20	-7.9	1.53	-57300
302-01-2	Hydrazine	50	1500	4	3121000	1280	18.374	-6.95	-1610000	688	23	-1	4.98	109500
13762-95-3	Hydrazine-d4	50	1500	4	3138000	1159	20.694	-20.106	-7380000	645	8	-2	5.73	84600
753-65-1	Bromochlorofluoroiodomethane	100	1500	4	350000	267	12.539	-3.785	-230000	52	92	7.4	14.33	0
353-59-3	Bromochlorodifluoromethane	100	1500	4	345000	429	10.922	-1.545	-4120000	164	38	1.7	12.06	-424000
40809-94-7	Bromochlorodiiodomethane	100	1500	4	405000	244	12.611	-3.915	-220000	37	88	11.4	15.53	166600
353-58-2	Bromodichlorofluoromethane	100	1500	4	260000	355	11.374	-2.189	-2280000	130	39	2.2	12.6	-219900
40809-91-4	Bromodichloroiodomethane	100	1500	4	59000	231	12.153	-3.244	-710000	110	11	-6.8	13.96	73000
75-62-7	Bromotrichloromethane	100	1500	4	699000	952	11.503	-2.45	340000	29	43	5.7	12.03	-29800
753-67-3	Bromofluorodiiodomethane	100	1500	4	763000	314	12.622	-4.052	-370000	41	123	33.3	15.42	-16600
753-66-2	Bromodifluoroiodomethane	100	1500	4	708000	357	11.955	-2.87	-850000	50	127	18.7	13.44	-312500
75-63-8	Bromotrifluoromethane	100	1500	4	3252000	1616	10.228	-0.861	40000	87	51	1.3	10.3	-637700
15458-53-4	Trifluoromethylsulflnylbromide	298	1000	4	148519000	2635	71.517	-66.029	722390000	485	10	118.4	13.83	
558-16-7	Bromotriiodomethane	100	1500	4	494000	240	12.185	-3.347	-380000	24	97	17.3	15.6	250900
506-68-3	Cyanogen bromide	298	1000	3.5	1132000	648	15.63	-10.997	253330000	908	50	-1297.6	8.55	181400
353-55-9	Dibromochlorofluoromethane	100	1500	4	245000	322	11.47	-2.322	-2060000	132	32	4.1	13.42	-165900
40809-93-6	Dibromochloroiodomethane	100	1500	4	898000	327	12.558	-3.936	-300000	28	127	27.6	15.29	125300
594-18-3	Dibromodichloromethane	100	1500	4	1003000	1120	10.058	-0.878	140000	17	38	6	13.14	25300
1478-04-2	Dibromofluoroiodomethane	100	1500	4	350000	251	12.72	-4.043	-80000	51	89	4.8	14.33	-61700
75-61-6	Dibromodifluoromethane	100	1500	4	2093000	1491	10.197	-0.944	210000	54	41	4.9	12.27	-368400
14059-90-6	Dibromodiiodomethane	100	1500	4	638000	273	11.891	-2.9	-550000	24	107	30.6	15.79	216200
594-15-0	Tribromochloromethane	100	1500	4	1062000	1105	9.608	-0.401	70000	24	27	-3.1	13.23	71600
353-54-8	Tribromofluoromethane	100	1500	4	1291000	1343	9.966	-0.774	150000	27	35	8.8	13.15	-119500
14349-80-5	Tribromoiodomethane	100	1500	4	1278000	379	12.939	-4.078	1550000	22	33	17.6	14.76	169000
558-13-4	Tetrabromomethane	100	1500	4	324000	230	11.726	-2.652	-750000	50	73	-2.3	12.37	109200
1495-15-4	Chlorofluorodiiodomethane	100	1500	4	507000	291	12.305	-3.452	-440000	48	102	21.4	14.6	-75000
420-49-5	Chlorodifluoroiodomethane	100	1500	4	440000	990	13.121	-4.54	380000	161	10	1.2	12.28	-374200
75-72-9	Chlorotrifluoromethane	50	1500	4	585000	597	10.159	-0.395	-7130000	184	53	0.7	9.29	-699100
421-83-0	Trifluoromethylsulfenylchloride	298	1000	4	160385000	2713	72.621	-38.215	892670000	523	10	102.3	12.93	
14349-82-7	Chlorotriiodomethane	100	1500	4	408000	341	12.88	-3.979	720000	29	20	15.2	15.03	195300
506-77-4	Cyanogen chloride	298	1000	3.5	1655000	733	16.293	-2.577	337860000	886	140	-1253.5	7.42	132200
420-48-4	Dichlorofluoroiodomethane	100	1500	4	146000	1066	12.168	-3.223	-620000	135	6	-131.6	12.61	-173200
75-71-8	Dichlorodifluoromethane	50	1500	4	542000	535	10.033	-0.199	-6290000	180	38	-0.2	10.4	-486600
594-23-0	Dichlorodiiodomethane	100	1500	4	54000	152	12.29	-3.342	-120000	53	42	-0.7	14.04	108300
75-44-5	Phosgene	298	1000	4	6402000	2603	4.31	2.2	-2340000	108	35	-1553.3	9.52	-220800
75-69-4	Trichlorofluoromethane	50	1500	4	404000	446	10.474	-0.891	-4170000	157	32	-0.7	10.6	-280500
594-22-9	Trichloroiodomethane	100	1500	4	768000	820	11.364	-2.348	520000	29	41	78.2	13.02	12100
56-23-5	Tetrachloromethane	200	1500	4	1610000	654	11.842	-2.789	1480000	40	40	-17.7	9.58	-93700
3889-75-6	Fluoromethylidyne	50	3000	3.5	4000	70	4.158	-4.955	36050000	525	186	0.8	4.87	238600
1495-49-4	Fluorotriiodomethane	100	1500	4	38000	212	13.764	-5.189	660000	86	7	-7.1	14.3	16100
2154-59-8	Difluoromethylene	50	3000	4	2404000	1344	2.736	1.07	-7660000	322	79	-0.2	5.94	-187100
1184-76-5	Difluorodiiodomethane	100	1500	4	2434000	1452	5.505	3.878	-30000	5	36	10.7	13.65	-269300
7127-18-6	Difluoroaminocarbonitrile	100	2000	4	2015000	1090	13.727	-5.301	4440000	213	15	-2.7	8.75	
693-85-6	Perfluorodiazyrine	200	2000	4	4546000	1875	10.466	-1.064	-260000	115	74	-0.9	9.27	
353-50-4	Carbonyl flouride	298	1000	4	2337000	1077	24.017	-18.805	418270000	927	49	-1337.2	7.67	-640100
2264-21-3	Perfluoromethyl radical	50	3000	4	783000	1655	7.506	-1.37	-2450000	156	77	0.5	8.17	-464500
2314-97-8	Trifluoroiodomethane	100	1500	4	2873000	1500	10.735	-1.498	590000	92	40	1.4	11.02	-583600
75-73-0	Tetrafluoromethane	50	3000	4	283000	504	11.638	-2.554	-3270000	124	100	-1.4	7.08	-927500
506-78-5	Cyanogen iodide	298	1000	3.5	526000	516	6.265	-2.327	2310000	257	41	-1366.7	9.26	225100
507-25-5	Tetraiodomethane	100	1500	4	3455000	373	11.954	-2.953	3400000	21	32	47.2	15.14	273000
764-05-6	Azidocarbonitrile	100	2000	4	8071000	900	15.374	-6.986	14650000	111	28	13.2	9.19	
630-08-0	Carbon monoxide	50	5000	3.5	5637000	2841	2.817	-2.907	96750000	1430	414	-0.2	3.83	-113800
463-58-1	Carbonyl sulfide	298	1000	3.5	2350000	862	4.57	0.575	-5210000	109	268	-1194.7	7.23	-138300
124-38-9	Carbon dioxide	50	5000	3.5	1447000	1029	17.13	-21.542	479500000	1185	57	-0.5	5.4	-393100
75-15-0	Carbon disulphide	298	1000	3.5	338000	568	7.164	-4.896	1820000	250	50	-1282.6	7.47	117100
12070-04-1	Silicon carbide	100	2000	4	16012000	975	5.1	-1.685	16340000	76	67	-33.3	5.96	
593-98-6	Bromochlorofluoromethane	100	1500	4	185000	334	10.038	0.026	-2650000	136	76	-1.1	12.13	-217100
34970-00-8	Bromochloroiodomethane	100	1500	4	541000	346	11.327	-2.133	-470000	70	123	11.9	14.52	71000
75-27-4	Bromodichloromethane	100	1500	4	1025000	1069	7.807	1.957	490000	54	39	3.5	12.16	-36800
1512-27-2	Bromofluoroiodomethane	100	1500	4	470000	337	11.621	-2.437	-220000	86	123	18.5	13.23	-107400
1511-62-2	Bromodifluoromethane	100	1500	4	182000	345	9.764	0.598	-5080000	167	79	-0.8	10.67	-416300
557-95-9	Bromodiiodomethane	100	1500	4	557000	323	11.564	-2.609	-290000	66	121	23	15.48	172200
124-48-1	Dibromochloromethane	100	1500	4	1404000	1186	7.054	2.841	170000	76	18	-5.1	12.86	10100
1868-53-7	Dibromofluoromethane	100	1500	4	1780000	1181	9.468	0.254	1410000	99	32	3.4	12.45	-171800
593-94-2	Dibromoiodomethane	100	1500	4	562000	333	11.617	-2.68	-210000	67	124	17.2	14.78	113500
75-25-2	Tribromomethane	100	1500	4	234000	258	9.577	0.341	-1230000	72	87	-0.3	12.7	42900
1512-28-3	Chlorofluoroiodomethane	100	1500	4	68000	217	12.177	-3.212	450000	166	46	4.8	12.08	-185500
75-45-6	Chlorodifluoromethane	50	1500	4	142000	434	9.599	0.876	-5880000	175	78	0.2	9.58	-476500
638-73-3	Chlorodiiodomethane	100	1500	4	81000	193	11.647	-2.635	630000	96	54	2.5	14.32	119800
75-43-4	Dichlorofluoromethane	50	1500	4	137000	370	9.843	0.34	-3640000	158	65	-0.4	10.43	-279300
594-04-7	Dichloroiodomethane	100	1500	4	24000	182	11.597	-2.451	330000	142	31	-6.9	12.7	14200
67-66-3	Trichloromethane	200	1500	4	231000	274	10.306	-0.632	-480000	41	123	-53	9.46	-98000
13453-52-6	Fluoromethylene	50	3000	4	14030000	1915	-7.875	15.439	-314910000	596	200	-1.4	4.03	108500
1493-01-2	Fluorodiiodomethane	100	1500	4	68000	184	12.619	-3.882	1720000	137	35	2.2	12.4	-54800
2670-13-5	Difluoromethyl	50	3000	4	3180000	2017	1.756	4.847	170000	5	71	0	7.67	-235700
1493-03-4	Difluoroiodomethane	100	1500	4	8764000	811	12.901	-3.958	12400000	81	39	12.9	10.3	-357700
75-46-7	Trifluoromethane	50	3000	4	18000	303	10.727	-1.116	-5530000	186	93	-0.8	7.53	-686300
75-47-8	Triiodomethane	100	1500	4	309000	255	9.553	0.258	-810000	44	98	17.3	14.74	218800
74-90-8	Hydrogen cyanide	298	1000	3.5	1314000	950	5.211	-1.213	-15580000	462	149	-1.3	4.04	130500
3129-90-6	Isothiocyanic acid	298	1000	4	2752000	2129	12.864	-10.659	16420000	163	128	-1303.8	6.57	127600
74-97-5	Bromochloromethane	100	1500	4	1184000	948	3.827	6.687	620000	45	47	2	10.4	-30700
373-52-4	Bromofluoromethane	100	1500	4	3544000	1586	15.964	-9.496	20710000	553	16	-1.9	9.39	-199700
557-68-6	Bromoiodomethane	100	1500	4	294000	366	8.402	2.527	-1390000	58	137	8.2	12.28	72500
74-95-3	Dibromomethane	100	1500	4	283000	379	8.585	2.399	-1660000	67	141	3.5	10.79	6600
593-70-4	Chlorofluoromethane	50	1500	4	24000	301	6.928	5.922	-10900000	198	85	-0.9	8.24	-258400
593-71-5	Chloroiodomethane	100	1500	4	1769000	904	5.004	5.513	1320000	64	40	3.5	11.18	21700
75-09-2	Dichloromethane	200	1500	4	2940000	1374	15.476	-8.635	15060000	540	10	-0.9	8.54	-88500
3744-29-4	Fluoromethyl	50	3000	4	9037000	1138	6.219	0.501	11950000	105	57	-5.4	4.53	-29000
373-53-5	Fluoroiodomethane	100	1500	4	80000	243	12.244	-3.384	-1530000	282	64	5.1	8.96	-144000
75-10-5	Difluoromethane	50	3000	4	779000	771	11.382	-1.874	-4960000	157	203	-0.6	6.47	-444600
75-11-6	Diiodomethane	100	1500	4	4466000	958	8.327	1.904	5620000	114	25	7.5	12.25	127000
16787-85-2	Nitromethyl-d1 radical	50	5000	4	691000	509	17.568	-6.12	-260000	166	143	10.6	8.18	156800
95193-24-1	Nitromethyl-d2 radical	50	5000	4	640000	460	18.434	-7.426	-840000	167	131	4.8	8.46	149100
288-94-8	Tetrazol	100	1000	4	89000	311	14.684	4.527	-8280000	87	157	-31.8	8.35	342000
50-00-0	Methanal	50	3000	4	29000	613	7.31	-0.881	-10600000	241	206	-0.2	3.46	-104700
1664-99-9	Methanal-d1	50	3000	4	88000	721	7.415	-1.102	-8320000	211	195	-1.4	4.51	-107400
1664-98-8	Methanal-d2	50	3000	4	412000	913	7.241	-0.905	-8590000	187	189	-0.8	4.13	-111200
64-18-6	Methanoic acid	50	1500	4	4063000	1045	37.803	-33.694	799600000	810	235	1.9	6.64	-371300
2229-07-4	Methyl radical	200	3000	4	1599000	1008	7.856	-2.095	-19320000	355	273	0.4	0.35	150200
74-83-9	Bromomethane	100	1500	4	4355000	1447	12.805	-8.378	-46780000	638	77	-0.2	6.43	-22300
74-87-3	Chloromethane	200	1500	4	46000	417	14.558	-6.118	10940000	287	163	-6.8	5.08	-74000
593-53-3	Fluoromethane	50	3000	4	12283000	1671	6.83	5.962	-63920000	288	305	0	3.91	-229600
74-88-4	Iodomethane	100	1500	4	2637000	1326	16.548	-15.435	6510000	676	64	0.2	7.26	23300
2053-29-4	Iminomethane	298	1000	4	378000	730	11.535	0.777	1090000	143	238	-18.9	4.33	
75-12-7	Methaneamide	298	1500	4	8268000	1260	6.552	14.503	-37190000	121	280	7.7	6.72	
624-91-9	Methyl nitrite	298	1000	4	44000	165	14.797	5.826	-14920000	255	52	-1683.2	8.38	-63900
75-52-5	Nitromethane	50	1500	4	15000	124	42.578	-51.484	253470000	647	53	12.3	8.17	-60800
23171-70-2	Nitromethane-d2	50	1500	4	14000	121	43.075	-54.342	199730000	566	57	15.8	10.36	-69400
13031-32-8	Nitromethane-d3	50	1500	4	15000	124	42.709	-53.93	165380000	519	59	13.2	8.72	-73800
598-58-3	Methyl nitrate	298	1000	4	118000	120	28.778	-15.22	11180000	251	82	-2244.3	4.08	-120400
624-90-8	Azidomethane	100	2000	4	27472000	1311	17.952	-1.501	33660000	120	65	67.1	8.81	
74-82-8	Methane	50	5000	4	22350000	2018	32.767	-31.098	1346090000	1229	473	-0.6	-0.42	-66600
57-13-6	Carbamoylamine (Urea)	298	1000	4	78178000	2594	51.596	-26.755	366830000	454	32	34.8	8.01	-225900