CASRN	Chemical	Tmin	Tmax	a0	a1	a2	a3	a4	a5	a6	a7	I	J	Hf
96915-10-5	Pentacyclopenta[bc,ef,hi,kl,no]coronene	298	1000	4	3848000	271	143.222	14.866	-21630000	37	163	-1870.9	-0.71	903000
96928-78-8	Hexacyclopenta[bc,ef,hi,kl,no,qr]coronene	298	1000	4	3415000	334	171.863	-23.139	-30850000	129	118	-211.7	13.85	1013000