CASRN	Chemical	Tmin	Tmax	a0	a1	a2	a3	a4	a5	a6	a7	I	J	Hf
36556-44-2	5-Chloro-1,2,3-trifluorobenzene	200	1500	4	80135000	1054	41.874	-11.93	88490000	86	66	150.8	14.14	-479500
36556-39-5	1,2-Dichloro-3,4-difluorobenzene	200	1500	4	89141000	1030	42.762	-13.128	98480000	84	65	170.5	15.58	-317000
36556-58-8	1,2-Dichloro-3,5-difluorobenzene	200	1500	4	89141000	1030	42.762	-13.128	98480000	84	65	170.5	15.58	-339600
36556-37-3	1,3-Dichloro-2,4-difluorobenzene	200	1500	4	89141000	1030	42.762	-13.128	98480000	84	65	170.5	14.88	-324500
2367-80-8	1,3-Dichloro-2,5-difluorobenzene	200	1500	4	89141000	1030	42.762	-13.128	98480000	84	65	170.5	14.88	-336300
36556-38-4	1,4-Dichloro-2,3-difluorobenzene	200	1500	4	89141000	1030	42.762	-13.128	98480000	84	65	170.5	14.88	-313700
400-05-5	1,4-Dichloro-2,5-difluorobenzene	200	1500	4	89141000	1030	42.762	-13.128	98480000	84	65	170.5	14.88	-336300
36556-41-9	1,5-Dichloro-2,3-difluorobenzene	200	1500	4	89141000	1030	42.762	-13.128	98480000	84	65	170.5	15.58	-325400
2253-30-7	1,5-Dichloro-2,4-difluorobenzene	200	1500	4	89141000	1030	42.762	-13.128	98480000	84	65	170.5	14.26	-336300
36556-54-4	2,3-Dichloro-1,4-difluorobenzene	200	1500	4	89141000	1030	42.762	-13.128	98480000	84	65	170.5	14.88	-325800
36611-27-5	2,5-Dichloro-1,3-difluorobenzene	200	1500	4	89141000	1030	42.762	-13.128	98480000	84	65	170.5	14.88	-336300
36556-36-2	1,2,3-Trichloro-4-fluorobenzene	200	1500	4	99510000	1007	43.462	-14.065	109610000	82	64	190.3	16.31	-164600
3107-21-9	1,2,3-Trichloro-5-fluorobenzene	200	1500	4	99510000	1007	43.462	-14.065	109610000	82	64	190.3	15.61	-178400
36556-35-1	1,2,4-Trichloro-3-fluorobenzene	200	1500	4	99510000	1007	43.462	-14.065	109610000	82	64	190.3	16.31	-163300
400-04-4	1,2,4-Trichloro-5-fluorobenzene	200	1500	4	61745000	943	39.299	-8.809	66640000	73	62	158	16.1	-174900
3107-20-8	1,2,5-Trichloro-3-fluorobenzene	200	1500	4	99510000	1007	43.462	-14.065	109610000	82	64	190.3	16.31	-175000
36556-33-9	1,3,5-Trichloro-2-fluorobenzene	200	1500	4	99510000	1007	43.462	-14.065	109610000	82	64	190.3	15.61	-171700
634-66-2	1,2,3,4-Tetrachlorobenzene	200	1500	4	148767000	1026	44.661	-15.476	160860000	83	66	216.3	16.31	-2800
634-90-2	1,2,3,5-Tetrachlorobenzene	200	1500	4	110975000	976	41.669	-11.768	118640000	77	64	204.9	16.39	-13400
95-94-3	1,2,4,5-Tetrachlorobenzene	200	1500	4	59813000	960	43.078	-14.16	67190000	75	63	210.6	15.7	-16700
1198-57-8	1,2,4,5-Tetrachlorobenzene-d2	300	1000	4	2880000	549	24.672	15.05	-55910000	274	11	203.6	15.3	
551-62-2	1,2,3,4-Tetrafluorobenzene	200	1500	4	12500000	1257	38.653	-7.864	15000000	112	50	65.7	12.83	-623900
2367-82-0	1,2,3,5-Tetrafluorobenzene	200	1500	4	17598000	1135	39.613	-9.21	21890000	97	57	74.6	12.99	-645600
327-54-8	1,2,4,5-Tetrafluorobenzene	200	1500	4	13694000	1190	38.952	-8.32	16930000	103	54	69.2	12.26	-638500
608-21-9	1,2,3-Tribromobenzene	200	1500	4	94949000	1030	44.639	-16.244	107080000	84	65	240.1	17.49	189900
615-54-3	1,2,4-Tribromobenzene	200	1500	4	94949000	1030	44.639	-16.244	107080000	84	65	240.1	18.61	182400
626-39-1	1,3,5-Tribromobenzene	200	1500	4	1655000	3700	30.484	1.01	3030000	31	54	126.9	16.08	177300
52921-77-4	2,4,6-Tribromobenzene-1,3,5-d3	300	1000	4	1894000	778	38.027	-6.945	5760000	27	86	406	18.48	
36556-47-5	1-Chloro-2,3-difluorobenzene	200	1500	4	113305000	1231	47.26	-18.688	134940000	112	69	132.6	13.88	-293000
1435-44-5	1-Chloro-2,4-difluorobenzene	200	1500	4	113305000	1231	47.26	-18.688	134940000	112	69	132.6	13.88	-319800
1435-43-4	1-Chloro-3,5-difluorobenzene	200	1500	4	113305000	1231	47.26	-18.688	134940000	112	69	132.6	13.18	-327300
38361-37-4	2-Chloro-1,3-difluorobenzene	200	1500	4	113305000	1231	47.26	-18.688	134940000	112	69	132.6	13.88	-303900
2367-91-1	2-Chloro-1,4-difluorobenzene	200	1500	4	113305000	1231	47.26	-18.688	134940000	112	69	132.6	13.88	-319800
696-02-6	4-Chloro-1,2-difluorobenzene	200	1500	4	113305000	1231	47.26	-18.688	134940000	112	69	132.6	13.88	-313900
36556-50-0	1,2-Dichloro-3-fluorobenzene	200	1500	4	123061000	1167	46.522	-17.723	142650000	103	68	153.5	14.62	-142200
1435-49-0	1,2-Dichloro-4-fluorobenzene	200	1500	4	97917000	1140	43.599	-14.01	111960000	99	67	121.8	14.61	-155300
2268-05-5	1,3-Dichloro-2-fluorobenzene	200	1500	4	22111000	1546	48.303	-20.983	46700000	237	23	18	12.68	-138500
1435-46-7	1,3-Dichloro-5-fluorobenzene	200	1500	4	123061000	1167	46.522	-17.723	142650000	103	68	153.5	13.92	-162300
348-59-4	1,4-Dichloro-2-fluorobenzene	200	1500	4	123061000	1167	46.522	-17.723	142650000	103	68	153.5	14.62	-154800
1435-48-9	2,4-Dichloro-1-fluorobenzene	200	1500	4	123061000	1167	46.522	-17.723	142650000	103	68	153.5	14.62	-154800
87-61-6	1,2,3-Trichlorobenzene	200	1500	4	28778000	1632	57.246	-34.51	84800000	277	14	21.3	13.07	18700
120-82-1	1,2,4-Trichlorobenzene	200	1500	4	26138000	1656	58.425	-36.629	88460000	297	9	9.4	13.67	9400
108-70-3	1,3,5-Trichlorobenzene	200	1500	4	24881000	1632	56.952	-34.295	81060000	293	8	0.5	11.93	2700
1198-60-3	2,4,6-Trichlorobenzene-1,3,5-d3	300	1000	4	5551000	635	16.333	31.797	-75090000	233	63	249.4	14.52	
3907-98-0	4,5,6-Trichlorobenzene-1,2,3-d3	300	1000	4	1417000	511	37.64	-5.538	-13420000	212	48	164.5	14.75	
88-06-2	2,4,6-Trichlorophenol	298	1000	4	2814000	687	34.072	0.573	5250000	30	60	67	14.56	-132900
1489-53-8	1,2,3-Trifluorobenzene	200	1500	4	18156000	1609	47.08	-19.437	38520000	250	33	13.2	11.59	-447900
367-23-7	1,2,4-Trifluorobenzene	200	1500	4	19239000	1630	48.325	-21.303	43890000	257	31	15.2	12.38	-469800
372-38-3	1,3,5-Trifluorobenzene	200	1500	4	20199000	1617	48.542	-21.543	45950000	253	34	11.6	10.63	-491400
1423-08-1	2,4,6-Trifluorobenzene-1,3,5-d3	300	1000	4	2030000	677	35.684	-2.643	-27060000	271	26	36.2	10.89	
583-53-9	1,2-Dibromobenzene	200	1500	4	2616000	1741	18.881	13.946	2090000	58	15	-114.7	11.69	157200
108-36-1	1,3-Dibromobenzene	200	1500	4	2445000	1863	20.447	12.233	2320000	55	20	-95.2	12.4	151900
106-37-6	1,4-Dibromobenzene	200	1500	4	108000	2782	23.548	9.044	1990000	5	74	115.6	14.25	151900
348-51-6	1-Chloro-2-fluorobenzene	200	1500	4	52405000	1356	38.49	-6.447	61350000	133	65	70.2	12.82	-122100
625-98-9	1-Chloro-3-fluorobenzene	200	1500	4	51537000	1354	38.404	-6.372	60280000	133	65	63.5	12.86	-129600
352-33-0	1-Chloro-4-fluorobenzene	200	1500	4	52212000	1360	38.963	-7.138	61790000	134	65	71.6	12.21	-129700
95-50-1	1,2-Dichlorobenzene	200	1500	4	68266000	1305	42.911	-12.529	85800000	130	63	81.2	12.82	42100
541-73-1	1,3-Dichlorobenzene	200	1500	4	67991000	1299	43.051	-12.84	85490000	129	63	81.5	12.98	37800
106-46-7	1,4-Dichlorobenzene	200	1500	4	71007000	1303	43.419	-13.189	89550000	130	63	81.4	12.17	34500
576-24-9	2,3-Dichlorophenol	298	1000	4	61092000	741	-395.887	779.841	-1790920000	348	20	1547.1	26.44	-154200
120-83-2	2,4-Dichlorophenol	298	1000	4	14793000	802	0.59	71.174	-105180000	156	145	286.5	15.84	-151300
583-78-8	2,5-Dichlorophenol	298	1000	4	14158000	783	21.126	33.952	-30330000	16	245	249	15.62	-160700
95-77-2	3,4-Dichlorophenol	298	1000	4	29427000	987	2.712	70.405	-89450000	47	265	472.1	16.87	-180500
367-11-3	1,2-Difluorobenzene	200	1500	4	10226000	1515	49.152	-23.713	37280000	367	20	-6.8	10.66	-280900
372-18-9	1,3-Difluorobenzene	200	1500	4	11274000	1570	50.503	-25.667	46080000	351	28	-3.4	10.81	-296200
540-36-3	1,4-Difluorobenzene	200	1500	4	12023000	1636	53.678	-31.328	61810000	354	32	7.7	10.21	-293600
528-29-0	1,2-Dinitrobenzene	298	1000	4	737000	378	43.634	7.04	-28160000	185	65	53.4	13.19	
99-65-0	1,3-Dinitrobenzene	298	1000	4	709000	373	44.364	5.638	-27410000	190	61	73.2	13.56	77900
100-25-4	1,4-Dinitrobenzene	298	1000	4	574000	348	43.981	6.145	-25350000	180	63	40.5	12.6	
106-51-4	1,4-Benzoquinone	298	1000	4	1471000	504	25.222	16.89	-23430000	145	102	89	10.93	-110000
2237-14-1	1,4-Benzoquinone-2,3,5,6-d4	298	1000	4	1636000	827	48.494	-26.305	4030000	329	22	38.9	10.59	
3474-41-7	3-methylphenyl radical	50	3000	4	132000	225	43.696	-5.494	-14020000	223	86	16.5	11.98	324100
2396-01-2	Phenyl	50	3000	4	4811000	790	34.98	-6.911	-7870000	146	200	5.3	9.69	350600
108-86-1	Bromobenzene	200	1500	4	2324000	1588	13.446	20.021	1380000	25	46	-37.1	11.29	126200
608-30-0	2,6-Dibromoaminobenzene	300	1000	4	326000	658	12.437	21.053	-66850000	265	23	139.4	13.13	
108-90-7	Monochlorobenzene	200	1500	4	10377000	1405	51.481	-29.742	45620000	493	8	-19	10.4	66100
3114-55-4	Chlorobenzene-d5	300	1000	4	1836000	623	40.908	-10.346	-5970000	194	95	105.9	11.83	
608-27-5	2,3-Dichloroaminobenzene	298	1000	4	584000	417	33.259	12.463	-25090000	215	30	81.6	13.92	
95-82-9	2,5-Dichloroaminobenzene	298	1000	4	189000	210	33.657	11.939	-22830000	220	21	-116.9	11.74	
608-31-1	2,6-Dichloroaminobenzene	298	1000	4	246000	260	33.763	11.698	-23000000	220	22	-52.1	11.87	
626-43-7	3,5-Dichloroaminobenzene	298	1000	4	273000	327	32.645	12.926	-21800000	214	16	-18.1	12.51	
462-06-6	Fluorobenzene	200	1500	4	11028000	1385	47.081	-20.846	20460000	441	29	-11	9.89	-100600
1423-10-5	Fluorobenzene-d5	300	1000	4	5411000	662	40.957	-10.687	-5000000	111	196	-19	10.24	
591-50-4	Iodobenzene	298	1000	4	63921000	1141	49.815	-21.501	96490000	137	34	-2355.2	10.75	162500
71-43-2	Benzene	50	1500	4	5884000	824	29.455	10.246	-20750000	99	202	5.7	7.31	100400
1684-47-5	Benzene-1,3,5-d3	300	1000	4	4340000	680	41.379	-10.832	1890000	104	210	-72.9	7.72	
1076-43-3	Benzene-d6	300	1000	4	5214000	704	45.548	-20.636	2820000	155	191	-31.2	7.48	
108-95-2	Phenol	50	1500	4	431000	381	87.944	-92.851	287230000	423	89	-0.7	10.63	-77800
120-80-9	1,2-Benzenediol	50	1500	4	399000	379	106.988	-129.706	449840000	502	57	2.2	11.43	-251400
108-46-3	1,3-Benzenediol	298	1000	4	441000	412	21.081	29.297	-40850000	200	35	-1.8	12.17	-255100
123-31-9	1,4-Benzenediol	50	1500	4	241000	384	102.244	-114.083	416930000	516	32	-4.6	12.06	-242000
98-11-3	Benzenesulfonic acid	298	1000	4	141518000	536	56.633	-18.565	156990000	44	34	-310	9.02	
108-98-5	Benzenethiol	298	1000	4	33273000	1096	37.682	-0.101	45330000	131	26	-2367	10.96	111500
62-53-3	Aniline	50	3000	4	1659000	490	41.778	-3.6	-7120000	120	149	21.6	10.61	-65400
109-06-8	2-Methylpyridine	50	1500	4	67000	176	104.233	-120.215	538480000	582	55	11.6	11.03	121500
108-99-6	3-Methylpyridine	50	1500	4	70000	179	104.265	-119.655	540210000	581	56	11.9	11.04	128800
108-89-4	4-Methylpyridine	50	1500	4	92000	209	102.645	-117.06	500510000	563	61	17.4	10.65	124700
1628-89-3	2-Methoxypyridine	298	1000	4	36481000	1110	43.347	33.213	-14920000	35	387	467.5	15.73	
89457-95-4	2-(Methoxy-d3)-pyridine	298	1000	4	831000	573	33.564	19.558	-41170000	217	55	186.6	14.41	
592-57-4	1,3-Cyclohexadiene	50	1500	4	167000	251	88.572	-87.572	253950000	435	95	-53.1	9.33	130100
628-41-1	1,4-Cyclohexadiene	50	1500	4	133000	246	84.723	-84.131	209520000	433	88	4.6	8.67	134000
821-07-8	(E)-1,3,5-Hexatriene	50	1500	4	248000	238	87.708	-86.368	255510000	479	57	3.8	9.55	192000
2612-46-6	(Z)-1,3,5-Hexatriene	50	1500	4	216000	228	89.546	-89.148	282180000	493	54	-8.5	9.55	189800
2235-12-3	1,3,5-Hexatriene (Equilibrium mixture)	50	1500	4	177000	219	89.387	-87.372	273580000	488	45	2.7	9.51	192000
1603-40-3	2-Amino-3-methylpyridine	298	1000	4	593000	264	75.358	-56.832	63580000	263	119	-257.7	8.92	
695-34-1	2-Amino-4-methylpyridine	298	1000	4	832000	310	84.194	-69.971	113420000	289	122	-205.4	9.74	
1603-41-4	2-Amino-5-methylpyridine	298	1000	4	2254000	351	76.978	-53.463	73850000	151	212	-865.9	5.16	
1824-81-3	6-Amino-2-methylpyridine	298	1000	4	686000	141	71.761	-32.345	59570000	100	194	-2137.5	-16.93	
625-86-5	2,5-Dimethylfuran	50	1500	4	365000	257	37.485	11.681	-30270000	221	71	0.7	10.13	-74600
67363-95-5	3-Ethylfuran	50	1500	4	286000	230	32.94	17.794	-34060000	198	71	-2.8	11.36	-63800
800002-32-8	Propenoic acid (Dimer)	50	1500	4	232000	162	49.437	5.011	-25940000	245	18	13.8	13.83	-686000
632-16-6	2,3-Dimethylthiophene	50	1500	4	513000	294	45.845	-2.264	-6760000	210	77	-0.2	11.38	75700
638-00-6	2,4-Dimethylthiophene	50	1500	4	242000	207	40.535	6.424	-21850000	230	61	3.8	11.59	73400
638-02-8	2,5-Dimethylthiophene	50	1500	4	189000	191	41.71	4.675	-22970000	249	53	0.3	10.79	74600
632-15-5	3,4-Dimethylthiophene	50	1500	4	308000	272	45.883	-2.21	-7880000	241	53	1.4	10.75	74600
872-55-9	2-Ethylthiophene	50	1500	4	203000	202	37.189	10.743	-24800000	207	62	2.4	12.1	86400
1795-01-3	3-Ethylthiophene	50	1500	4	240000	213	36.07	12.455	-25440000	199	65	-2.6	12.08	85400
110-83-8	Cyclohexene	50	1500	4	1100000	449	39.095	17.2	-25120000	124	145	6	10.2	26400
513-81-5	2,3-Dimethyl-1,3-butadiene	298	1000	4	327000	159	89.32	-74.085	171520000	376	78	-523.4	2.87	71300
693-02-7	1-Hexyne	200	1500	4	676000	239	44.858	-0.479	-1710000	132	116	-86.9	9.42	147400
693-89-0	1-Methylcyclopentene	298	1500	4	2212000	1006	25.221	22.535	6790000	60	40	-54.3	10.3	
1120-62-3	3-Methylcyclopentene	298	1500	4	5540000	664	73.025	-44.828	67210000	192	232	72.8	12.46	
1759-81-5	4-Methylcyclopentene	298	1500	4	34323000	819	25.561	22.823	35840000	54	57	-63.3	11.26	
1528-30-9	Methylenecyclopentane	298	1000	4	661000	290	74.639	-44.847	63310000	211	159	-54.1	7.72	41500
108-94-1	Cyclohexanone	50	1500	4	175000	232	34.834	27.412	-55540000	202	72	60.4	11.11	-192800
542-18-7	Chlorocyclohexane	298	1000	4	541000	220	75.856	-38.255	15010000	219	133	-373.2	7.45	-127000
17760-40-6	1,1,1-Trichlorohexane	200	1500	4	1865000	301	56.413	3.411	-7140000	88	135	-11.6	16.82	-192700
372-46-3	Fluorocyclohexane	298	1000	4	14418000	886	26.501	58.864	-99160000	121	195	296.1	13.52	
17337-12-1	1,1,1-Trifluorohexane	200	1500	4	1363000	275	57.787	1.707	-5450000	98	133	-51.9	14.17	-793800
20654-46-0	2,2-Dimethylbutanenitrile	200	1500	4	1393000	346	104.356	-92.422	222470000	372	100	2490.8	33	11200
20654-44-8	(RS)-2,3-Dimethylbutanenitrile	200	1500	4	2810000	471	87.283	-61.886	90120000	289	134	2745.4	35.94	7600
3302-16-7	3,3-Dimethylbutanenitrile	200	1500	4	14241000	762	83.755	-55.822	35390000	256	245	3002.8	35.27	200
617-80-1	2-Ethylbutanenitrile	200	1500	4	1504000	345	102.757	-89.014	210610000	356	112	2465.6	33.97	13800
628-73-9	Hexanenitrile	200	1500	4	1294000	317	101.424	-85.967	201740000	355	110	-72.4	14.3	21800
542-54-1	4-Methylpentanenitrile	200	1500	4	3567000	494	84.346	-55.956	76130000	259	157	-30	16.12	17300
6339-13-5	(RS)-2-Methylpentanenitrile	200	1500	4	1562000	350	102.215	-88.144	205610000	352	114	-21.7	14.31	13900
21101-88-2	(RS)-3-Methylpentanenitrile	200	1500	4	2892000	465	84.779	-56.359	78170000	269	144	-40.3	16.68	17300
105-60-2	2-Azacycloheptanone	298	1000	4	529000	233	105.952	-84.937	160180000	311	109	-252.2	9.91	-200800
100-64-1	Cyclohexanoneoxime	298	1000	4	1744000	374	102.408	-80.833	135990000	283	146	-84	12	
110-82-7	Cyclohexane	100	3000	4	1483000	482	57.775	-6.023	-33430000	172	155	-0.6	8.46	-83800
760-21-4	2-Ethyl-1-butene	298	1000	4	4213000	475	71.555	-19.608	46680000	103	224	-92.4	12.42	-21600
592-41-6	1-Hexene	200	1500	4	3744000	475	51.949	-0.303	-3980000	63	209	251.7	14.53	-11000
4050-45-7	(E)-2-Hexene	298	1000	4	4384000	488	60.92	-5.622	13020000	91	222	97	13.32	-21300
7688-21-3	(Z)-2-Hexene	298	1000	4	9279000	701	32.876	44.162	-26570000	17	239	528.8	17.59	-16300
13269-52-8	(E)-3-Hexene	298	1000	4	2898000	475	-7.065	107.785	-130500000	236	34	273.6	14.37	-20500
7642-09-3	(Z)-3-Hexene	298	1000	4	1847000	475	2.654	89.509	-135370000	266	23	380	16.64	-15300
563-78-0	2,3-Dimethyl-1-butene	298	1000	4	3571000	486	73.057	-30.663	42200000	226	155	69.5	12.21	-29700
563-79-1	2,3-Dimethyl-2-butene	298	1000	4	4818000	541	46.968	15.802	-12980000	67	214	141.1	12.98	-33300
558-37-2	3,3-Dimethyl-1-butene	298	1000	4	4210000	577	36.569	31.022	-38370000	119	159	143.8	12.28	-24400
96-37-7	Methylcyclopentane	50	3000	4	219000	215	52.983	0.729	-37570000	231	98	14.3	11.33	-68500
763-29-1	2-Methyl-1-pentene	298	1000	4	7743000	656	37.168	33.733	-42120000	102	193	477.7	16.41	-25300
625-27-4	2-Methyl-2-pentene	298	1000	4	7447000	657	28.696	47.181	-26670000	21	216	351.8	16.41	-29200
760-20-3	3-Methyl-1-pentene	298	1000	4	33590000	771	-153.856	399.327	-778450000	298	52	684.9	23.34	-14600
616-12-6	(E)-3-Methyl-2-pentene	298	1000	4	8535000	686	27.421	50.027	-27470000	13	224	373.6	16.97	-26600
922-62-3	(Z)-3-Methyl-2-pentene	298	1000	4	7671000	663	28.501	47.651	-26730000	19	218	355.6	16.44	-26600
691-37-2	4-Methyl-1-pentene	298	1000	4	7509000	701	34.463	41.036	-56930000	144	168	386.4	15.96	-14600
674-76-0	(E)-4-Methyl-2-pentene	298	1000	4	4919000	544	74.084	-43.065	33350000	251	169	197.5	13.17	-27900
691-38-3	(Z)-4-Methyl-2-pentene	298	1000	4	3987000	505	69.794	-28.089	28460000	180	186	119.9	13.76	-22700
62017-16-7	1,1-Dichlorohexane	200	1500	4	1352000	268	57.203	3.049	-4840000	100	134	-85.3	15.65	-178300
62127-41-7	1,1-Difluorohexane	200	1500	4	1190000	261	57.795	2.771	-6170000	113	133	-80.2	13.96	-547900
108-93-0	Cyclohexanol	50	1500	4	522000	318	39.601	32.804	-61340000	217	72	53.4	12.2	-247400
1003-30-1	2-Ethyltetrahydrofuran	50	1500	4	288000	233	32.677	18.326	-35350000	201	70	-3	11.33	-62800
66-25-1	Hexanal	273	1500	4	281000	68	44.156	25.911	-61110000	284	28	-2003.7	-37.76	-217000
591-78-6	2-Hexanone	200	1000	4	1537000	315	49.806	8.509	-15640000	136	129	180.8	14.17	-248400
589-38-8	3-Hexanone	200	1000	4	1802000	334	47.931	15.126	-17760000	138	127	111.1	13.04	-247100
4753-80-4	Thiacycloheptane	273	1000	4	1897000	397	48.503	26.708	-24530000	70	171	5.1	12.22	-27000
2679-29-0	Hexyl radical	200	3000	4	3758000	465	74.639	-30.126	34410000	163	189	422.3	16.32	57400
4520-08-5	Perfluorohexyl radical	50	3000	4	25924000	452	79.231	-32.376	36430000	46	22	32.2	23.81	-2513000
6366-35-4	1-Chloro-2,2-dimethylbutane	200	1500	4	13716000	731	94.759	-60.787	61150000	243	238	308.4	18.22	-169900
54677-12-2	1-Chloro-(2RS)-3-dimethylbutane	200	1500	4	3737000	524	98.581	-74.319	94930000	302	139	327.2	19.27	-164500
2855-08-5	1-Chloro-3,3-dimethylbutane	200	1500	4	13716000	731	94.759	-60.787	61150000	243	238	308.4	18.22	-169900
594-57-0	2-Chloro-2,3-dimethylbutane	200	1500	4	952000	459	160.202	-196.348	1066960000	698	14	136.2	15	-187800
128399-31-5	2(RS)-Chloro-3,3-dimethylbutane	200	1500	4	14785000	744	93.022	-59.194	47120000	247	241	390.8	17.72	-182300
544-10-5	1-Chlorohexane	200	1500	4	1140000	255	57.581	3.438	-4720000	110	138	-109.6	13.23	-159800
125533-00-8	2(RS)-Chlorohexane	200	1500	4	937000	236	59.899	0.058	-500000	130	124	-39.9	12.35	-172200
128399-27-9	(3RS)-Chlorohexane	200	1500	4	937000	236	59.899	0.058	-500000	130	124	-39.9	12.35	-172200
128399-28-0	1-Chloro-(2RS)-methylpentane	200	1500	4	3169000	454	107.034	-87.66	160900000	299	150	191	18.89	-161300
128443-61-8	1-Chloro-(3RS)-methylpentane	200	1500	4	3169000	454	107.034	-87.66	160900000	299	150	191	18.89	-157900
62016-94-8	1-Chloro-4-methylpentane	200	1500	4	3169000	454	107.034	-87.66	160900000	299	150	191	18.2	-161300
4325-48-8	2-Chloro-2-methylpentane	200	1500	4	1291000	291	56.779	3.971	-7000000	111	133	-226.2	12.04	-184700
53521-23-6	(2RR'-Chloro-(3SS'-methylpentane	200	1500	4	3244000	460	101.58	-76.336	127280000	288	146	279.1	17.75	-170300
53520-46-0	(2RS'-Chloro-(3SR'-methylpentane	200	1500	4	3244000	460	101.58	-76.336	127280000	288	146	279.1	17.75	-170300
128399-30-4	(2RS)-Chloro-4-methylpentane	200	1500	4	3244000	460	101.58	-76.336	127280000	288	146	279.1	17.75	-173700
4737-41-1	3-(Chloromethyl)pentane	200	1500	4	3169000	454	107.034	-87.66	160900000	299	150	191	18.2	-157900
128399-29-1	(3RS)-Chloro-2-methylpentane	200	1500	4	3244000	460	101.58	-76.336	127280000	288	146	279.1	17.75	-173700
918-84-3	3-Chloro-3-methylpentane	200	1500	4	2737000	411	120.521	-111.403	278080000	336	142	-9.7	14.63	-181300
373-14-8	1-Fluorohexane	200	1500	4	1038000	245	58.781	2.014	-4540000	123	135	-128.1	11.88	-309300
75-83-2	2,2-Dimethylbutane	200	1500	4	810000	301	67.621	6.46	-1390000	223	101	56.4	10.36	-143500
79-29-8	2,3-Dimethylbutane	200	1500	4	1755000	480	69.981	-3.046	-2120000	252	103	321.1	14.25	-134800
110-54-3	Hexane	200	1500	4	232000	124	38.434	38.156	-79930000	295	16	-279.3	3.19	-130100
107-83-5	2-Methylpentane	200	1500	4	154000	241	48.286	28.172	-55310000	307	14	220.5	13.19	-135300
96-14-0	3-Methylpentane	200	1500	4	348000	354	51.217	23.085	-55660000	309	25	312.1	14.71	-132500