CASRN	Chemical	Tmin	Tmax	a0	a1	a2	a3	a4	a5	a6	a7	I	J	Hf
52897-17-3	3-Ethyl-2,2,3-trimethylpentane	200	1500	4	7146000	545	92.783	37.163	-32910000	122	163	744.6	21.02	-174000
52897-18-4	3-Ethyl-2,2,4-trimethylpentane	200	1500	4	11159000	595	91.163	35.548	-42440000	103	195	642.4	22.61	-176300
52897-19-5	3-Ethyl-2,3,4-trimethylpentane	200	1500	4	3659000	523	112.196	-0.576	-8770000	232	97	830.2	22.49	-178000
52896-87-4	4-(1-Methylethyl)heptane	200	1500	4	9358000	538	91.521	16.548	-35350000	109	184	753.2	23.4	-193600
62016-13-1	2-Methyl-3-(1-methylethyl)hexane	200	1500	4	10168000	571	86.867	30.81	-39530000	97	188	706.7	23.83	-185100
871-83-0	2-Methylnonane	200	1500	4	11479000	572	80.922	29.976	-40400000	59	210	1051.8	26.28	-197400
5911-04-6	3-Methylnonane	200	1500	4	9038000	529	82.712	26.465	-35120000	68	196	954	26.47	-194800
17301-94-9	4-Methylnonane	200	1500	4	7257000	489	86.046	19.758	-27930000	75	185	844	25.5	-194900
15869-85-9	5-Methylnonane	200	1500	4	10325000	556	81.894	28.047	-37850000	65	202	993.2	26.13	-194900
16747-44-7	2,2,3,3,4-Pentamethylpentane	200	1500	4	9760000	578	100.266	31.851	-33790000	135	175	578.1	18.64	-175800
16747-45-8	2,2,3,4,4-Pentamethylpentane	200	1500	4	2128000	198	124.608	-17.223	44110000	70	184	-2638	-16.6	-182500
3178-29-8	4-Propylheptane	200	1500	4	7562000	482	87.574	17.415	-22620000	66	192	721.3	22.06	-193500
13475-81-5	2,2,3,3-Tetramethylhexane	200	1500	4	2463000	475	170.804	-96.052	216180000	388	66	710	19.89	-193800
52897-08-2	2,2,3,4-Tetramethylhexane	200	1500	4	5146000	513	89.742	35.981	-46710000	169	124	759.5	23.28	-189000
800000-46-8	2,2,(3RS,4RS)-Tetramethylhexane	200	1500	4	3153000	453	98.137	21.398	-21510000	176	112	701.1	22.45	-188600
800000-45-7	2,2,(3RS,4SR)-Tetramethylhexane	200	1500	4	3462000	469	100.755	18.292	-20870000	191	108	720	22.25	-189000
52897-09-3	2,2,3,5-Tetramethylhexane	200	1500	4	1905000	425	115.22	-5.831	10820000	236	80	662.7	21.41	-206000
51750-65-3	2,2,4,4-Tetramethylhexane	200	1500	4	9567000	544	96.518	31.675	-32240000	106	188	455.6	19.24	-195600
16747-42-5	2,2,4,5-Tetramethylhexane	200	1500	4	2538000	414	102.548	14.405	-14090000	187	106	585.9	22.26	-201600
1071-81-4	2,2,5,5-Tetramethylhexane	200	1500	4	457000	242	94.602	35.614	-42400000	265	40	305.2	16	-221100
52897-10-6	2,3,3,4-Tetramethylhexane	200	1500	4	13420000	640	87.219	45.261	-60150000	135	175	775.2	21.94	-189900
52897-11-7	2,3,3,5-Tetramethylhexane	200	1500	4	2771000	471	115.364	-7.584	620000	238	89	715	22.96	-194400
52897-12-8	2,3,4,4-Tetramethylhexane	200	1500	4	4421000	528	106.182	8.881	-21160000	213	106	799.4	24.1	-185200
52897-15-1	2,3,4,5-Tetramethylhexane	200	1500	4	11831000	664	80.042	49.587	-137530000	247	107	924.4	23.59	-194600
800000-48-0	2,(3RS,4RS),5-Tetramethylhexane	200	1500	4	10072000	637	84.961	40.815	-129430000	266	94	806.6	22.14	-194600
800000-47-9	2,(3RS,4SR),5-Tetramethylhexane	200	1500	4	10066000	603	96.748	19.628	-51860000	183	147	859.9	22.32	193700
5171-84-6	3,3,4,4-Tetramethylhexane	200	1500	4	9972000	721	67.459	88.332	-209410000	324	40	861.7	21.22	-183100
52896-92-1	2,2,3-Trimethylheptane	200	1500	4	8663000	541	95.342	22.1	-26440000	107	182	756.1	22.53	-200100
14720-74-2	2,2,4-Trimethylheptane	200	1500	4	431000	235	93.878	23.163	-34990000	253	40	412.5	19.59	-201600
20291-95-6	2,2,5-Trimethylheptane	200	1500	4	8624000	540	89.373	31.643	-32700000	94	184	674.5	23.28	-208600
1190-83-6	2,2,6-Trimethylheptane	200	1500	4	10429000	569	93.628	24.408	-29130000	94	194	696.3	22.39	-210800
52896-93-2	2,3,3-Trimethylheptane	200	1500	4	337669000	626	53.136	50.086	354290000	51	40	170.5	16.65	-197100
52896-95-4	2,3,4-Trimethylheptane	200	1500	4	4738000	579	91.305	23.199	-70090000	263	66	897.6	25.76	-193300
800000-35-5	2,(3RS,4RS)-Trimethylheptane	200	1500	4	3840000	497	103.736	1.629	-16760000	209	100	870.8	24.91	-193100
800000-34-4	2,(3RS,4SR)-Trimethylheptane	200	1500	4	6779000	642	73.906	53.602	-160290000	312	40	870.1	24.54	-193600
20278-85-7	2,3,5-Trimethylheptane	200	1500	4	12183000	619	88.094	28.832	-51310000	121	183	812.3	26.32	-197800
800000-37-7	2,(3RS,5RS)-Trimethylheptane	200	1500	4	5180000	632	83.867	37.256	-115030000	307	40	823.9	25.37	-198200
800000-36-6	2,(3RS,5SR)-Trimethylheptane	200	1500	4	6119000	519	101.121	4.814	-19150000	155	145	763.2	25.27	-197500
4032-93-3	2,3,6-Trimethylheptane	200	1500	4	3773000	612	77.337	47.214	-107500000	282	40	854.6	26.65	-199200
4032-92-2	2,4,4-Trimethylheptane	200	1500	4	11337000	589	86.054	38.023	-38720000	88	190	673.6	23.11	-197700
20278-84-6	2,4,5-Trimethylheptane	200	1500	4	3802000	502	99.758	7.683	-17060000	188	105	863.4	26.39	-197700
800000-38-8	2,(4RS,RSR)-Trimethylheptane	200	1500	4	3772000	505	101.764	4.701	-14420000	196	102	853.1	25.66	-197700
800000-39-9	2,(4RS,5RS)-Trimethylheptane	200	1500	4	3736000	497	98.155	9.958	-18440000	181	107	843	25.74	-197400
2613-61-8	2,4,6-Trimethylheptane	200	1500	4	1649000	453	113.602	-14.84	17960000	238	63	700.5	22.78	-206300
1189-99-7	2,5,5-Trimethylheptane	200	1500	4	1899000	486	90.615	30.361	-67910000	279	40	710.7	23.77	-206000
20278-87-9	3,3,4-Trimethylheptane	200	1500	4	3041000	616	95.452	22.873	-62300000	291	40	859.3	24.48	-194100
7154-80-5	3,3,5-Trimethylheptane	200	1500	4	6283000	493	100.288	11.661	-20680000	132	160	607.5	23.59	-196200
20278-88-0	3,4,4-Trimethylheptane	200	1500	4	10078000	593	95.531	22.072	-28920000	124	172	822.7	24.22	-193100
20278-89-1	3,4,5-Trimethylheptane	200	1500	4	8008000	671	65.848	68.111	-185300000	307	43	983.9	26.07	-191100
800000-40-2	(3RS),4,(5RS)-Trimethylheptane	200	1500	4	10236000	598	88.146	28.731	-52380000	141	163	873.8	25.07	-190500
800000-42-4	r-(3R),4,(5S)-Trimethylheptane	200	1500	4	6956000	672	68.763	62.189	-166430000	304	40	907.8	24.9	-190100
800000-41-3	s-(3R),4,(5S)-Trimethylheptane	200	1500	4	11107000	608	85.898	33.904	-64320000	151	161	886.6	24.05	-191100
112-30-1	1-Decanol	200	1500	4	2549000	299	84.296	16.037	-28960000	100	136	451.1	24.03	-336600
143-10-2	1-Decanethiol	273	1000	4	6423000	422	166.962	-123.51	170710000	219	177	830.6	28.07	-155200
13402-60-3	2-Decanethiol	273	1000	4	7392000	447	171.989	-155.059	204050000	223	184	755.6	27.67	-162000
59973-07-8	2-Thiaundecane	273	1000	4	1761000	200	99.946	-13.252	-5440000	100	138	-678.6	8.28	-35100
3698-94-0	3-Thiaundecane	273	1000	4	2120000	227	95.593	-3.335	-10050000	84	147	-467	12.81	-36200
24768-46-5	4-Thiaundecane	273	1000	4	2120000	227	95.593	-3.335	-10050000	84	147	-467	12.81	-149600
16967-04-7	5-Thiaundecane	273	1000	4	2120000	227	95.593	-3.335	-10050000	84	147	-467	12.81	-150500
872-10-6	6-Thiaundecane	273	1000	4	2120000	227	95.593	-3.335	-10050000	84	147	-467	12.12	-150500
112-51-6	6,7-Dithiadodecane	273	1000	4	2596000	249	102.312	-9.676	-6600000	88	143	-209.7	17.67	-141300
307-49-3	Perfluoroundecane	200	1500	4	32775000	1599	78.241	21.983	-430000	54	21	-3654.1	41.31	-5002100
78950-25-1	2,4,6,8,10-Undecapentaynenitrile	50	1500	3.5	46733000	382	14.33	23.426	45730000	29	26	-183.2	12.69	1254000
65754-71-4	1,5-Methano(10)-annulene	298	1000	4	10843000	518	15.415	52.054	12270000	32	43	-275.9	10.17	
2443-46-1	1,6-Methano(10)-annulene	298	1000	4	10490000	518	12.886	54.618	10700000	24	49	-296	9.33	
90-12-0	1-Methylnaphthalene	298	1000	4	6405000	573	113.431	-96.643	138240000	234	190	-3012.1	13.58	116900
91-57-6	2-Methylnaphthalene	298	1000	4	4104000	466	98.793	-62.084	64530000	160	189	-3265	11.92	116100
700-12-9	Pentamethylbenzene	298	1000	4	1639000	175	97.792	-23.175	25770000	65	170	-7024.7	-19.03	-74500
538-68-1	Pentylbenzene	200	1500	4	485000	171	65.156	30.961	-65070000	219	58	-85.8	12.44	9200
2243-98-3	1-Undecyne	200	1500	4	2481000	300	79.541	12.595	-28460000	110	127	464.5	20.63	68800
3922-25-6	1,1,1-Trichloroundecane	200	1500	4	3051000	281	103.676	5.971	-12180000	93	136	215.7	24.36	-271000
62126-97-0	1,1,1-Trifluoroundecane	200	1500	4	3425000	321	102.49	8.97	-18430000	103	138	620.6	26.69	-872100
2244-07-7	Undecanenitrile	200	1500	4	3110000	324	208.395	-191.262	488480000	360	119	395.1	24.69	-56900
4457-00-5	Hexylcyclopentane	50	3000	4	1061000	237	111.141	-14.499	-28760000	241	77	37.5	17.9	-146900
4292-92-6	Pentylcyclohexane	50	3000	4	1064000	283	113.368	-25.238	-37010000	252	74	366.6	19.05	-169900
821-95-4	1-Undecene	200	1500	4	9523000	499	89.184	9.733	-20230000	29	219	962	27.52	-89600
822-01-5	1,1-Dichloroundecane	200	1500	4	2841000	277	102.723	8.397	-12130000	94	140	214.9	24.1	-256600
62127-44-0	1,1-Difluoroundecane	200	1500	4	2286000	250	103.894	7.004	-11270000	103	135	63.9	20.19	-626200
112-12-9	2-Undecanone	200	1000	4	4536000	363	169.136	-158.796	160700000	237	152	758.7	25.6	-327000
2216-87-7	3-Undecanone	200	1000	4	8242000	459	190.171	-192.132	319520000	268	181	948.5	27.39	-325300
14476-37-0	4-Undecanone	200	1000	4	8211000	459	188.93	-193.957	307340000	268	180	955.8	27.45	-325300
2473-03-2	1-Chloroundecane	200	1500	4	2568000	269	102.094	10.319	-13160000	99	141	192.7	21.67	-239600
506-05-8	1-Fluoroundecane	200	1500	4	2381000	260	103.317	8.832	-13010000	107	138	155.7	20.04	-387600
17302-14-6	2,2-Dimethylnonane	200	1500	4	350000	124	91.03	36.543	-71730000	265	26	-154.6	7.84	-222000
2884-06-2	2,3-Dimethylnonane	200	1500	4	1611000	408	70.458	65.293	-141240000	284	18	943.9	27.46	-210500
17302-24-8	2,4-Dimethylnonane	200	1500	4	704000	298	94.317	25.968	-54260000	254	31	754.3	24.97	-216200
6975-98-0	2-Methyldecane	200	1000	4	2445000	305	98.577	10.981	-26280000	132	124	613.6	22.5	-213000
13151-34-3	3-Methyldecane	200	1500	4	1101000	275	74.881	52.737	-104390000	245	38	755.9	24.99	-210500
1120-21-4	Undecane	200	1000	4	3128000	310	94.635	12.956	-26790000	98	147	540.3	20.57	-208300
112-42-5	1-Undecanol	200	1500	4	2980000	306	89.667	21.395	-34900000	96	137	563.4	26.31	-354000
22438-39-7	2-Thiadodecane	273	1000	4	2036000	206	108.571	-13.571	-7520000	96	140	-656.2	9.67	-38800
59973-08-9	3-Thiadodecane	273	1000	4	2657000	249	103.286	-2.015	-13980000	81	150	-217.4	17.15	-39900
3698-93-9	4-Thiadodecane	273	1000	4	2657000	249	103.286	-2.015	-13980000	81	150	-217.4	17.15	-165300
40813-84-1	5-Thiadodecane	273	1000	4	2657000	249	103.286	-2.015	-13980000	81	150	-217.4	17.15	-166100
5332-52-5	1-Undecanethiol	273	1000	4	7282000	426	184.819	-143.773	196770000	219	179	957.9	30.53	-170800
62155-02-6	2-Undecanethiol	273	1000	4	8228000	448	189.833	-175.427	231070000	223	185	883.1	30.1	
3268-87-9	Octachlorodibenzo-1,4-dioxane	298	1000	4	3207000	427	71.865	-9.245	-49600000	243	15	283.7	20.59	-404600
307-59-5	Perfluorododecane	200	1500	4	35446000	1603	65.717	21.825	-530000	59	19	-1692.9	57.81	-5411500
32597-33-4	1,3,5,7,9,11-Dodecahexayne	50	1500	3.5	7938000	339	8.78	31.483	6260000	20	26	154.3	15.44	1325200
1746-01-6	2,3,7,8-Tetrachloro-1,4-dioxane	298	1000	4	356000	911	69.207	-6.518	7780000	18	77	332.1	19.45	-327300
39227-53-7	1-Chlorodibenzo-1,4-dioxane	300	1000	4	6349000	496	75.554	-10.926	-2360000	38	208	-257.4	14.13	-109700
39227-54-8	2-Chlorodibenzo-1,4-dioxane	298	1000	4	6297000	500	71.78	-3.933	-6850000	36	204	-206.8	14.33	-68800
38444-78-9	2,2',3-Trichloro-1,1'-biphenyl	200	1500	4	1271000	262	73.506	-9.034	-3810000	100	115	-148.4	15.18	126700
37680-66-3	2,2',4-Trichloro-1,1'-biphenyl	200	1500	4	1271000	262	73.506	-9.034	-3810000	100	115	-148.4	15.18	119600
37680-65-2	2,2',5-Trichloro-1,1'-biphenyl	200	1500	4	1271000	262	73.506	-9.034	-3810000	100	115	-148.4	15.18	119600
38444-73-4	2,2',6-Trichloro-1,1'-biphenyl	200	1500	4	1319000	267	73.203	-8.553	-4240000	99	116	-149.6	15.15	119800
38444-84-7	2,3,3'-Trichloro-1,1'-biphenyl	200	1500	4	913000	214	74.941	-11.077	-1110000	100	111	-349.7	12.59	126900
38444-86-9	2',3,4-Trichloro-1,1'-biphenyl	200	1500	4	1271000	262	73.506	-9.034	-3810000	100	115	-170	15.37	126900
55712-37-3	2,3',4-Trichloro-1,1'-biphenyl	200	1500	4	913000	214	74.941	-11.077	-1110000	100	111	-349.7	12.59	119800
55702-46-0	2,3,4-Trichloro-1,1'-biphenyl	200	1500	4	913000	214	74.941	-11.077	-1110000	100	111	-349.7	11.89	136500
38444-85-8	2,3,4'-Trichloro-1,1'-biphenyl	200	1500	4	913000	214	74.941	-11.077	-1110000	100	111	-349.7	11.89	126900
37680-68-5	2,3',5'-Trichloro-1,1'-biphenyl	200	1500	4	913000	214	74.941	-11.077	-1110000	100	111	-349.7	11.89	119800
38444-81-4	2,3',5-Trichloro-1,1'-biphenyl	200	1500	4	913000	214	74.941	-11.077	-1110000	100	111	-349.7	12.59	119800
55720-44-0	2,3,5-Trichloro-1,1'-biphenyl	200	1500	4	913000	214	74.941	-11.077	-1110000	100	111	-349.7	11.89	126900
55702-45-9	2,3,6-Trichloro-1,1'-biphenyl	200	1500	4	1319000	267	73.203	-8.553	-4240000	99	116	-149.6	14.46	126900
38444-76-7	2,3',6-Trichloro-1,1'-biphenyl	200	1500	4	1319000	267	73.203	-8.553	-4240000	99	116	-149.6	14.46	119800
7012-37-5	2,4,4'-Trichloro-1,1'-biphenyl	200	1500	4	1271000	262	73.506	-9.034	-3810000	100	115	-170	14.68	119800
15862-07-4	2,4,5-Trichloro-1,1'-biphenyl	200	1500	4	1271000	262	73.506	-9.034	-3810000	100	115	-170	14.68	126900
16606-02-3	2,4',5-Trichloro-1,1'-biphenyl	200	1500	4	1271000	262	73.506	-9.034	-3810000	100	115	-170	14.68	119800
35693-92-6	2,4,6-Trichloro-1,1'-biphenyl	200	1500	4	1319000	267	73.203	-8.553	-4240000	99	116	-149.6	13.76	119800
38444-77-8	2,4',6-Trichloro-1,1'-biphenyl	200	1500	4	1319000	267	73.203	-8.553	-4240000	99	116	-149.6	13.76	119800
37680-69-6	3,3',4-Trichloro-1,1'-biphenyl	200	1500	4	1083000	235	73.18	-9.605	-2520000	102	111	-277.1	14.57	119900
38444-87-0	3,3',5-Trichloro-1,1'-biphenyl	200	1500	4	1083000	235	73.18	-9.605	-2520000	102	111	-277.1	13.87	112800
38444-90-5	3,4,4'-Trichloro-1,1'-biphenyl	200	1500	4	1083000	235	73.18	-9.605	-2520000	102	111	-277.1	13.87	119900
53555-66-1	3,4,5-Trichloro-1,1'-biphenyl	200	1500	4	1083000	235	73.18	-9.605	-2520000	102	111	-277.1	13.19	129500
38444-88-1	3,4',5-Trichloro-1,1'-biphenyl	200	1500	4	1083000	235	73.18	-9.605	-2520000	102	111	-277.1	13.19	112800
208-96-8	Acenaphthylene	298	1000	4	4113000	483	64.415	-3.194	-3690000	43	199	-264.3	10.43	282700
259-79-0	Biphenylene	50	1500	4	289000	228	54.611	11.341	-33590000	185	71	1.5	11.7	437900
13029-09-9	2,2'-Dibromo-1,1'-biphenyl	50	3000	4	318000	194	76.463	-14.014	-12640000	211	55	21.1	15.75	270000
115245-06-2	2,3-Dibromo-1,1'-biphenyl	50	3000	4	411000	217	75.373	-12.191	-13920000	203	60	16.1	15.95	275200
49602-90-6	2,3'-Dibromo-1,1'-biphenyl	50	3000	4	329000	197	76.916	-14.536	-11860000	212	55	32.3	16.95	269800
49602-91-7	2,4'-Dibromo-1,1'-biphenyl	50	3000	4	414000	217	76.389	-13.752	-12010000	203	61	17.8	16.28	270200
53592-10-2	2,4-Dibromo-1,1'-biphenyl	50	3000	4	414000	217	76.389	-13.752	-12010000	203	61	17.8	16.25	270200
57422-77-2	2,5-Dibromo-1,1'-biphenyl	50	3000	4	407000	216	75.969	-13.115	-12990000	204	60	19.2	16.35	270200
59080-32-9	2,6-Dibromo-1,1'-biphenyl	50	3000	4	137000	152	73.368	-9.64	-28680000	257	26	0.4	14.02	270000
16400-51-4	3,3'-Dibromo-1,1'-biphenyl	50	3000	4	391000	205	75.296	-13.237	-14200000	211	57	27.9	18.09	262600
57186-90-0	3,4'-Dibromo-1,1'-biphenyl	50	3000	4	400000	207	76.51	-15.11	-11760000	211	58	19	17.7	262600
60108-72-7	3,4-Dibromo-1,1'-biphenyl	50	3000	4	392000	206	75.663	-13.79	-13320000	211	57	23.4	17.43	267600
16372-96-6	3,5-Dibromo-1,1'-biphenyl	50	3000	4	392000	206	75.649	-13.77	-13360000	211	57	23.6	17.13	262600
92-86-4	4,4'-Dibromo-1,1'-biphenyl	50	3000	4	420000	203	75.89	-14.212	-11430000	205	58	16	15.93	261600
13029-08-8	2,2'-Dichloro-1,1'-biphenyl	200	1500	4	1182000	270	72.293	-6.85	-4920000	102	121	-113.8	14	150400
25569-80-6	2,3'-Dichloro-1,1'-biphenyl	200	1500	4	1178000	272	72.361	-6.599	-5550000	106	119	-88.7	15.41	151600
34883-43-7	2,4'-Dichloro-1,1'-biphenyl	200	1500	4	1046000	254	73.505	-8.437	-3450000	106	118	-155.5	13.65	151700
33284-50-3	2,4-Dichloro-1,1'-biphenyl	200	1500	4	1046000	254	73.505	-8.437	-3450000	106	118	-155.5	13.63	151700
34883-39-1	2,5-Dichloro-1,1'-biphenyl	200	1500	4	1046000	254	73.505	-8.437	-3450000	106	118	-153.1	13.76	151700
33146-45-1	2,6-Dichloro-1,1'-biphenyl	200	1500	4	1381000	294	71.343	-5.303	-6960000	102	123	-63.1	13.95	151800
2050-67-1	3,3'-Dichloro-1,1'-biphenyl	200	1500	4	1234000	278	71.606	-6.802	-5270000	107	118	-62.1	16.17	144600
2974-90-5	3,4'-Dichloro-1,1'-biphenyl	200	1500	4	1234000	278	71.606	-6.802	-5270000	107	118	-71.4	15.83	144600
2974-92-7	3,4-Dichloro-1,1'-biphenyl	200	1500	4	1234000	278	71.606	-6.802	-5270000	107	118	-70.5	15.72	151800
34883-41-5	3,5-Dichloro-1,1'-biphenyl	200	1500	4	1234000	278	71.606	-6.802	-5270000	107	118	-68.1	15.3	144600
398-23-2	4,4'-Difluorobiphenyl	298	1000	4	4066000	427	67.448	0.872	-8070000	34	185	-121.6	13.44	-180800
262-12-4	Dibenzo-1,4-dioxane	298	1000	4	6743000	567	66.12	6.122	-18180000	59	193	77.9	13.86	-34800
2052-07-5	2-Bromo-1,1'-biphenyl	50	3000	4	332000	211	74.344	-10.526	-14900000	204	64	17.8	14.88	243100
2113-57-7	3-Bromo-1,1'-biphenyl	50	3000	4	321000	200	74.288	-11.586	-15120000	212	61	20	16.34	235500
92-66-0	4-Bromo-1,1'-biphenyl	50	3000	4	330000	202	74.641	-12.127	-14260000	211	62	14.5	15.3	235600
2051-60-7	2-Chloro-1,1'-biphenyl	200	1500	4	880000	246	71.646	-5.227	-4390000	100	127	-191.9	12.41	184800
2051-61-8	3-Chloro-1,1'-biphenyl	200	1500	4	985000	263	70.955	-5.582	-4680000	103	126	-125	14.37	179000
2051-62-9	4-Chloro-1,1'-biphenyl	200	1500	4	985000	263	70.955	-5.582	-4680000	103	126	-125	14.37	177800
83-32-9	Acenaphthene	298	1000	4	3328000	442	66.309	5.672	-8960000	46	187	-220	10.92	186100
92-52-4	Biphenyl	200	1500	4	781000	250	70.75	-4.68	-4160000	106	132	-173.1	11.16	210600
80-10-4	Diphenyldichlorosilane	273	1500	4	4238000	375	81.422	-7.518	260000	29	182	-184.2	16.7	-190200
573-98-8	1,2-Dimethylnaphthalene	298	1000	4	29619000	867	60.38	37.244	-50780000	32	288	-3053.2	17.75	83600
575-41-7	1,3-Dimethylnaphthalene	298	1000	4	31922000	888	62.735	32.741	-57580000	45	295	-3017.1	18.28	81800
571-58-4	1,4-Dimethylnaphthalene	298	1000	4	29717000	868	59.829	38.189	-51500000	31	288	-3051	17.07	82500
571-61-9	1,5-Dimethylnaphthalene	298	1000	4	29717000	868	59.829	38.189	-51500000	31	288	-3051	17.07	81800
575-43-9	1,6-Dimethylnaphthalene	298	1000	4	31922000	888	62.442	33.422	-57590000	44	295	-3017.1	18.28	82500
575-37-1	1,7-Dimethylnaphthalene	298	1000	4	32028000	889	62.164	33.609	-58590000	44	295	-3015	18.29	81800
581-40-8	2,3-Dimethylnaphthalene	298	1000	4	21735000	777	70.24	17.95	-36470000	54	274	-3256.2	17.06	83600
581-42-0	2,6-Dimethylnaphthalene	298	1000	4	32753000	892	76.209	-0.254	-58870000	98	298	-3031.8	18.13	82500
582-16-1	2,7-Dimethylnaphthalene	298	1000	4	35056000	912	87.357	-34.399	-48990000	142	303	-2993	18.35	82500
1127-76-0	1-Ethylnaphthalene	298	1000	4	23075000	800	69.044	19.527	-33730000	49	271	-3163.3	18.43	96700
939-27-5	2-Ethylnaphthalene	298	1000	4	26856000	840	74.461	8.998	-37570000	75	282	-3099.5	19.14	95900
87-85-4	Hexamethylbenzene	298	1000	4	2624000	266	121.143	-17.037	19550000	79	159	-6171.1	-0.81	-105700
1077-16-3	Hexylbenzene	200	1500	4	610000	185	68.361	39.607	-84210000	226	51	38.1	15.06	-6400
42205-08-3	1,2,3-Triethylbenzene	298	1000	4	2273000	322	324.691	-152.602	289050000	357	103	-5807.4	13.36	-68000
877-44-1	1,2,4-Triethylbenzene	298	1000	4	2891000	354	352.418	-170.327	376300000	368	114	-5617.9	16.12	-71100
102-25-0	1,3,5-Triethylbenzene	298	1000	4	3303000	387	185.01	-176.578	406860000	373	119	-4424.1	20.73	-74700
765-03-7	1-Dodecyne	200	1500	4	2625000	294	86.59	15.089	-34100000	114	123	539.4	22.36	53100
62108-57-0	1,1,1-Trichlorododecane	200	1500	4	3666000	294	111.473	9.093	-15390000	88	141	352.8	27	-286700
764-84-1	1,1,1-Trifluorododecane	200	1500	4	3187000	283	112.291	8.318	-14640000	93	140	322.1	24.47	-887800
2437-25-4	Dodecanenitrile	200	1500	4	3390000	322	229.265	-211.809	541330000	362	118	487.4	26.73	-72600
112-41-4	1-Dodecene	200	1500	4	11906000	524	96.462	12.499	-24710000	25	225	1190.6	30.87	-104800
5617-42-5	Heptylcyclopentane	50	3000	4	1252000	240	120.397	-13.852	-32620000	239	75	39	19.3	-162400
4292-75-5	Hexylcyclohexane	50	3000	4	1272000	286	122.633	-27.596	-43640000	249	74	490.4	21.34	-185600
62017-17-8	1,1-Dichlorododecane	200	1500	4	3115000	277	111.683	9.699	-13830000	94	140	273.7	25.75	-272300
62127-45-1	1,1-Difluorododecane	200	1500	4	2733000	271	98.257	31.866	-32170000	102	128	354.3	24.76	-641900