CASRN	Chemical	MW	rho	k	Tm	Tmax
7429-90-5	Aluminum	26.982	2377	0.311	933.47	1190.15
7727-15-3	Aluminum bromide	266.694	2647	2.435	370.65	540.15
7446-70-0	Aluminum chloride	133.341	1302	2.711	465.75	569.15
7784-23-8	Aluminum iodide	407.695	3223	2.5	461.43	513.15
7440-36-0	Antimony	121.76	6530	0.67	903.778	1018.15
10025-91-9	Antimony(III) chloride	228.119	2681	2.293	346.55	350.15
7647-18-9	Antimony(V) chloride	299.025	2370	1.869	277.15	350.15
7790-44-5	Antimony(III) iodide	502.473	4171	2.483	444.15	595.15
7440-38-2	Arsenic	74.922	5220	0.544	1090.15	1110.15
7440-39-3	Barium	137.327	3338	0.299	1000.15	1823.15
10553-31-8	Barium bromide	297.135	3991	0.924	1130.15	1173.15
10361-37-2	Barium chloride	208.233	3174	0.681	1234.15	1354.15
7787-32-8	Barium fluoride	175.324	4140	0.999	1641.15	2000.15
13718-50-8	Barium iodide	391.136	4260	0.977	984.15	1248.15
7440-41-7	Beryllium	9.012	1690	0.11	1560.15	1580.15
7787-47-5	Beryllium chloride	79.918	1540	1.1	688.15	746.15
7787-49-7	Beryllium fluoride	47.009	1960	0.015	825.15	1123.15
7440-69-9	Bismuth	208.98	10050	1.35	544.556	1073.15
7787-58-8	Bismuth tribromide	448.692	4760	2.637	492.15	1200.15
7787-60-2	Bismuth trichloride	315.339	3916	2.3	507.15	623.15
7440-42-8	Boron	10.811	2080	0	2348.15	2368.15
7440-43-9	Cadmium	112.411	7996	1.218	594.219	773.15
7789-42-6	Cadmium bromide	272.219	4075	1.08	841.15	993.15
10108-64-2	Cadmium chloride	183.317	3392	0.82	841.15	1080.15
7790-80-9	Cadmium iodide	366.22	4396	1.117	661.15	973.15
7440-70-2	Calcium	40.078	1378	0.23	1115.15	1757.15
7789-41-5	Calcium bromide	199.886	3111	0.5	1015.15	1064.15
10043-52-4	Calcium chloride	110.984	2085	0.422	1048.15	1223.15
7789-75-5	Calcium fluoride	78.075	2520	0.391	1691.15	2300.15
10102-68-8	Calcium iodide	293.887	3443	0.751	1056.15	1301.15
7440-45-1	Cerium	140.116	6550	0.71	1072.15	1733.15
7790-86-5	Cerium(III) chloride	246.475	3250	0.92	1080.15	1223.15
7758-88-5	Cerium(III) fluoride	197.111	4659	0.936	1703.15	2200.15
7440-46-2	Cesium	132.905	1843	0.556	301.65	783.15
7787-69-1	Cesium bromide	212.809	3133	1.223	909.15	1133.15
7647-17-8	Cesium chloride	168.358	2790	1.065	919.15	1179.15
13400-13-0	Cesium fluoride	151.903	3649	1.282	976.15	1185.15
7789-17-5	Cesium iodide	259.809	3197	1.183	905.15	1180.15
7789-18-6	Cesium nitrate	194.91	2820	1.166	682.15	764.15
10294-54-9	Cesium sulfate	361.874	3100	0.95	1278.15	1803.15
7440-47-3	Chromium	51.996	6300	1.1	2180.15	2373.15
7440-48-4	Cobalt	58.933	7750	1.65	1768.15	1853.15
7440-50-8	Copper	63.546	7997	0.819	1357.77	2500.15
7758-89-6	Copper(I) chloride	98.999	3692	0.76	696.15	858.15
7429-91-6	Dysprosium	162.5	8370	1.43	1685.15	1813.15
10025-74-8	Dysprosium(III) chloride	268.859	3620	0.68	991.15	1260.15
7440-52-0	Erbium	167.259	8860	1.57	1802.15	1973.15
7440-53-1	Europium	151.964	5130	2.8	1095.15	1253.15
7440-54-2	Gadolinium	157.25	7400	0	1586.15	1606.15
10138-52-0	Gadolinium(III) chloride	263.61	3560	0.671	875.15	1280.15
13572-98-0	Gadolinium(III) iodide	537.96	4120	0.908	1203.15	1305.15
7440-55-3	Gallium	69.723	6080	0.62	302.916	673.15
13450-88-9	Gallium(III) bromide	309.435	3116	2.46	396.15	408.15
13450-90-3	Gallium(III) chloride	176.082	2053	2.083	351.05	414.15
13450-91-4	Gallium(III) iodide	450.436	3630	2.377	485.15	525.15
7440-56-4	Germanium	72.64	5600	0.55	1211.4	1873.15
7440-57-5	Gold	196.967	17310	1.343	1337.33	1473.15
7440-58-6	Hafnium	178.49	12000	0	2506.15	2526.15
7440-60-0	Holmium	164.93	8340	0	1745.15	1765.15
7440-74-6	Indium	114.818	7020	0.836	429.75	773.15
13465-09-3	Indium(III) bromide	354.53	3121	1.5	693.15	801.15
10025-82-8	Indium(III) chloride	221.177	2140	2.1	856.15	939.15
13510-35-5	Indium(III) iodide	495.531	3820	1.5	480.15	633.15
7439-88-5	Iridium	192.217	19000	0	2719.15	2739.15
7439-89-6	Iron	55.845	7035	0.926	1811.15	2480.15
7758-94-3	Iron(II) chloride	126.751	2348	0.555	950.15	1150.15
7439-91-0	Lanthanum	138.905	5940	0.61	1193.15	1873.15
13536-79-3	Lanthanum bromide	378.617	4933	0.096	1061.15	1185.15
10099-58-8	Lanthanum chloride	245.264	3209	0.777	1131.15	1246.15
13709-38-1	Lanthanum fluoride	195.9	4589	0.682	1766.15	2450.15
13813-22-4	Lanthanum iodide	519.619	4290	1.11	1051.15	1180.15
7439-92-1	Lead	207.2	10660	1.22	600.612	973.15
10031-22-8	Lead(II) bromide	367	5730	1.65	644.15	873.15
7758-95-4	Lead(II) chloride	278.1	4951	1.5	774.15	983.15
10101-63-0	Lead(II) iodide	461	5691	1.594	683.15	970.15
7439-93-2	Lithium	6.941	512	0.52	453.65	558.15
7550-35-8	Lithium bromide	86.845	2528	0.652	823.15	1012.15
7447-41-8	Lithium chloride	42.394	1502	0.432	883.15	1054.15
7789-24-4	Lithium fluoride	25.939	1810	0.49	1121.35	1320.15
10377-51-2	Lithium iodide	133.845	3109	0.917	742.15	940.15
7790-69-4	Lithium nitrate	68.946	1781	0.546	526.15	714.15
10377-48-7	Lithium sulfate	109.945	2003	0.407	1133.15	1487.15
7439-94-3	Lutetium	174.967	9300	0	1936.15	1956.15
7439-95-4	Magnesium	24.305	1584	0.234	923.15	1173.15
7789-48-2	Magnesium bromide	184.113	2620	0.478	984.15	1208.15
7786-30-3	Magnesium chloride	95.211	1680	0.271	987.15	1099.15
10377-58-9	Magnesium iodide	278.114	3050	0.651	907.15	1161.15
7439-96-5	Manganese	54.938	5950	1.05	1519.15	1863.15
7773-01-5	Manganese(II) chloride	125.844	2353	0.437	923.15	1123.15
7789-47-1	Mercury(II) bromide	360.4	5126	3.233	514.15	592.15
7487-94-7	Mercury(II) chloride	271.5	4368	2.862	550.15	577.15
7774-29-0	Mercury(II) iodide	454.4	5222	3.235	529.15	627.15
7439-98-7	Molybdenum	95.94	9330	0	2896.15	2916.15
7440-00-8	Neodymium	144.242	6890	0.76	1289.15	1623.15
7440-02-0	Nickel	58.693	7810	0.726	1728.15	1973.15
7718-54-9	Nickel(II) chloride	129.599	2653	0.66	1304.15	1330.15
7440-04-2	Osmium	190.23	20000	0	3306.15	3326.15
7440-05-3	Palladium	106.42	10380	1.169	1827.95	1973.15
7440-06-4	Platinum	195.084	19770	2.4	2041.35	2473.15
7440-07-5	Plutonium	244	16630	1.419	913.15	1223.15
7440-09-7	Potassium	39.098	828	0.232	336.65	773.15
7758-02-3	Potassium bromide	119.002	2127	0.825	1007.15	1203.15
7447-40-7	Potassium chloride	74.551	1527	0.583	1044.15	1212.15
7789-23-3	Potassium fluoride	58.096	1910	0.651	1131.15	1310.15
7681-11-0	Potassium iodide	166.003	2448	0.956	954.15	1177.15
7757-79-1	Potassium nitrate	101.103	1865	0.723	607.15	730.15
7440-10-0	Praseodymium	140.908	6500	0.93	1204.15	1733.15
10361-79-2	Praseodymium(III) chloride	247.267	3230	0.74	1059.15	1250.15
7440-15-5	Rhenium	186.207	18900	0	3458.15	3478.15
7440-16-6	Rhodium	102.906	10700	0.895	2237.15	2473.15
7440-17-7	Rubidium	85.468	1460	0.451	312.45	1073.15
7789-39-1	Rubidium bromide	165.372	2715	1.072	965.15	1180.15
584-09-8	Rubidium carbonate	230.945	2840	0.64	1110.15	1280.15
7791-11-9	Rubidium chloride	120.921	2248	0.883	997.15	1196.15
13446-74-7	Rubidium fluoride	104.466	2870	1.02	1068.15	1340.15
7790-29-6	Rubidium iodide	212.372	2904	1.143	929.15	1175.15
13126-12-0	Rubidium nitrate	147.473	2519	1.068	583.15	690.15
7488-54-2	Rubidium sulfate	266.999	2560	0.665	1339.15	1818.15
7440-18-8	Ruthenium	101.07	10650	0	2607.15	2627.15
7440-19-9	Samarium	150.36	7160	0	1345.15	1365.15
7440-20-2	Scandium	44.956	2680	0.54	1814.15	1953.15
7782-49-2	Selenium	78.96	3990	0	493.95	513.95
7440-21-3	Silicon	28.086	2570	0.36	1687.15	1773.15
7440-22-4	Silver	107.868	9320	0.9	1234.93	1773.15
7785-23-1	Silver(I) bromide	187.772	5577	1.035	703.15	940.15
7783-90-6	Silver(I) chloride	143.321	4830	0.94	728.15	900.15
7783-96-2	Silver(I) iodide	234.772	5580	1.01	831.15	1075.15
7761-88-8	Silver(I) nitrate	169.873	3970	1.098	483.15	633.15
10294-26-5	Silver(I) sulfate	311.799	4840	1.089	933.15	1043.15
7440-23-5	Sodium	22.99	927	0.23	370.944	873.15
7647-15-6	Sodium bromide	102.894	2342	0.816	1020.15	1218.15
497-19-8	Sodium carbonate	105.989	1972	0.448	1129.15	1277.15
7647-14-5	Sodium chloride	58.443	1556	0.543	1073.85	1300.15
7681-49-4	Sodium fluoride	41.988	1948	0.636	1269.15	1370.15
7681-82-5	Sodium iodide	149.894	2742	0.949	934.15	1185.15
7631-99-4	Sodium nitrate	84.995	1900	0.715	579.65	643.15
7757-82-6	Sodium sulfate	142.043	2069	0.483	1157.15	1350.15
7440-24-6	Strontium	87.62	6980	0	1050.15	1070.15
10476-81-0	Strontium bromide	247.43	3700	0.745	930.15	1277.15
10476-85-4	Strontium chloride	158.53	2727	0.578	1147.15	1310.15
7783-48-4	Strontium fluoride	125.62	3470	0.751	1750.15	2200.15
10476-86-5	Strontium iodide	341.43	4085	0.885	811.15	1299.15
7704-34-9	Sulfur	32.065	1819	0.8	388.36	433.15
7440-25-7	Tantalum	180.948	15000	0	3290.15	3310.15
7721-01-9	Tantalum(V) chloride	358.213	2700	4.316	489.75	730.15
13494-80-9	Tellurium	127.6	5700	0.35	722.66	873.15
7440-27-9	Terbium	158.925	7650	0	1632.15	1652.15
7440-28-0	Thallium	204.383	11220	1.44	577.15	873.15
7789-40-4	Thallium(I) bromide	284.287	5980	1.755	733.15	920.15
7791-12-0	Thallium(I) chloride	239.836	5628	1.8	704.15	915.15
7790-30-9	Thallium(I) iodide	331.287	6150	1.761	714.85	1010.15
10102-45-1	Thallium(I) nitrate	266.388	4910	1.873	479.15	552.15
7446-18-6	Thallium(I) sulfate	504.83	5620	1.3	905.15	1200.15
10026-08-1	Thorium(IV) chloride	373.85	3363	1.4	1043.15	1120.15
13709-59-6	Thorium(IV) fluoride	308.032	6058	0.759	1383.15	1651.15
7440-30-4	Thulium	168.934	8560	0.5	1818.15	1948.15
7440-31-5	Tin	118.71	6979	0.652	505.08	1923.15
7772-99-8	Tin(II) chloride	189.616	3360	1.253	520.15	753.15
7646-78-8	Tin(IV) chloride	260.522	2370	2.687	239.08	411.15
7440-32-6	Titanium	47.867	4110	0	1941.15	1961.15
7550-45-0	Titanium(IV) chloride	189.679	1807	1.735	249.03	410.15
7440-33-7	Tungsten	183.84	17600	0	3695.15	3715.15
7440-61-1	Uranium	238.029	17300	0	1408.15	1428.15
10025-93-1	Uranium(III) chloride	344.388	4840	7.943	1110.15	1330.15
10026-10-5	Uranium(IV) chloride	379.841	3572	1.945	863.15	940.15
10049-14-6	Uranium(IV) fluoride	314.023	6485	0.992	1309.15	1614.15
7440-62-2	Vanadium	50.942	5500	0	2183.15	2203.15
7440-64-4	Ytterbium	173.04	6210	0	1097.15	1117.15
7440-65-5	Yttrium	88.906	4180	0.29	1795.15	1958.15
10361-92-9	Yttrium chloride	195.265	2510	0.5	994.15	1118.15
7440-66-6	Zinc	65.409	6570	1.1	692.68	973.15
7699-45-8	Zinc bromide	225.217	3470	0.959	675.15	875.15
7646-85-7	Zinc chloride	136.315	2540	0.53	563.15	830.15
10139-47-6	Zinc iodide	319.218	3878	1.36	723.15	861.15
7733-02-0	Zinc sulfate	161.472	3140	0.47	953.15	1260.15
7440-67-7	Zirconium	91.224	5800	0	2127.85	2147.85
10026-11-6	Zirconium(IV) chloride	233.036	1643	7.464	710.15	765.15