CAS	Chemical	MW	Tc	rhoc	A	B	C	D
7440-63-3	Xenon	131.29	289.73	1103	2097.8096	-117.2877	962.2241	-217.6634
7439-90-9	Krypton	83.8	209.48	910	1612.009	342.437	130.7723	178.6945
7440-37-1	Argon	39.95	150.69	536	895.4345	297.7907	-15.9601	119.8686
132259-10-0	Air	28.96	132.53	343	410.6099	777.461	-841.3265	495.5129
7727-37-9	Nitrogen	28.01	126.19	313	470.9224	493.2507	-560.4689	389.6108
7782-44-7	Oxygen	32	154.6	427	748.3728	396.2376	-416.2389	372.6904
7704-34-9	Sulfur	32.06	1312.95	203	3728.2432	-5258.9909	5203.2088	-1927.9722
7782-41-4	Fluorine	38	144.41	593	677.5368	1399.1215	-1526.3565	870.3285
7782-50-5	Chlorine	70.91	416.96	577	908.9019	948.0463	-1353.2681	1093.5278
10097-32-2	Bromine	159.82	584.15	1183	1672.7965	449.5091	676.7593	15.3973
7553-56-2	Iodine	253.8	819.15	1637	1995.2359	589.1905	627.3536	65.6236
7664-39-3	Hydrogen fluoride	20.01	461.15	290	232.8396	1347.9901	-1296.9204	1091.0626
7647-01-0	Hydrogen chloride	36.46	324.65	450	640.0181	462.1796	-180.0873	273.3275
10035-10-6	Hydrogen bromide	80.92	363.15	809	1716.6784	-697.6208	1545.2372	-534.0575
10034-85-2	Hydrogen iodide	127.91	423.85	1049	2159.6727	-837.4455	1907.8899	-675.9615
74-90-8	Hydrogen cyanide	27.02	456.65	194	576.9982	-153.5039	576.1976	-153.0246
7732-18-5	Water	18.02	647.1	322	1094.0233	-1813.2295	3863.9557	-2479.813
7783-06-4	Hydrogen sulfide	34.08	373.1	349	454.159	757.2956	-698.1045	404.4247
7664-41-7	Ammonia	17.03	405.5	225	531.7253	-31.5027	257.0928	-63.9457
10102-43-9	Nitric oxide	30.01	180.15	517	1496.5803	-1584.2431	2252.1437	-1031.321
10102-44-0	Nitrogen dioxide	46.01	431.15	558	1690.6809	-1592.7803	2233.6217	-968.0655
10024-97-2	Nitrous oxide	44.01	309.52	454	954.7062	-399.587	1000.6634	-350.0132
10544-72-6	Dinitrogentetroxide	92.01	431.1	1115	276.2115	-44.5981	604.172	-135.9384
460-19-5	Cyanogen	52.04	400.15	267	1378.7351	-1668.4751	2299.1821	-1052.1005
7719-12-2	Phosphorus trichloride	137.33	563.15	528	1077.6858	-98.8936	665.5992	-117.8757
506-77-4	Cyanogen chloride	61.47	449.05	377	1387.633	-1242.596	1899.5222	-814.8977
7440-21-3	Silane	32.12	269.75	242	202.1021	310.6035	-45.2615	142.0821
10026-04-7	Tetrachlorosilane	169.9	507.05	521	1212.2339	-448.0911	977.9054	-307.7212
630-08-0	Carbon monoxide	28.01	132.86	304	571.9328	-67.0956	387.1443	-121.7294
124-38-9	Carbon dioxide	44.01	304.13	468	897.8727	170.041	169.0516	37.9218
504-64-3	Carbon suboxide	68.03	427.58	383	1139.6512	-1261.4775	2221.6476	-959.2381
463-58-1	Carbonyl sulfide	60.07	378.77	447	614.6483	835.4859	-850.8364	540.48
75-44-5	Phosgene	98.92	455.05	521	1175.383	-403.6009	832.6348	-231.8645
75-15-0	Carbon disulfide	76.14	552.05	476	731.6284	105.4039	368.2583	-27.6945
7446-09-5	Sulfur dioxide	64.06	430.64	525	1026.6061	287.4616	-59.1497	243.0818
7446-11-9	Sulfur trioxide	80.06	490.85	631	441.4331	1592.9448	-778.3064	1407.6855
7791-25-5	Sulfuryl chloride	134.97	545.05	577	1181.0337	-220.5274	868.584	-221.9166
2551-62-4	Sulfur hexafluoride	146.05	318.88	742	1159.8382	1894.1251	-3293.5522	2428.5215
74-93-1	Methyl mercaptan	48.11	469.95	332	704.5697	-263.8878	591.8503	-181.3799
75-08-1	Ethyl mercaptan	62.13	499.15	300	691.9049	-266.2214	555.099	-164.0295
75-18-3	Dimethyl sulfide	62.13	503	309	761.5375	-501.7612	869.4948	-333.3843
352-93-2	Diethyl sulfide	90.19	557.15	284	681.7218	-323.6418	640.5198	-212.6743
110-02-1	Thiophene	84.14	579.35	384	669.4387	34.8407	278.2567	-4.5806
593-53-3	Fluoromethane (R41)	34.03	317.28	319	579.2311	238.0353	7.78	65.3812
75-10-5	Difluoromethane (R32)	52.02	351.26	424	895.2753	224.1922	-50.9228	229.66
75-46-7	Trifluoromethane (R23)	70.01	299.75	526	640.3526	2164.8814	-3066.7802	1825.7135
75-73-0	Tetrafluoromethane (R14)	88	227.55	629	1095.6241	429.5476	-317.382	397.1853
74-87-3	Methyl chloride	50.49	416.25	353	811.5515	-235.202	591.682	-153.4405
75-09-2	Methylene chloride	84.93	510.05	459	937.7851	96.8605	196.4483	106.8482
67-66-3	Chloroform	119.38	536.45	508	1175.1441	-347.5847	842.3866	-239.1385
56-23-5	Carbon tetrachloride	153.82	556.35	557	1168.441	-175.3077	535.7568	-28.0071
74-83-9	Bromomethane	94.94	467.05	609	1295.9529	-43.9173	439.685	35.7205
74-95-3	Dibromomethane	173.85	611.05	779	1922.8847	-620.7007	1443.7506	-392.298
75-25-2	Tribromomethane	252.75	696.05	883	1813.5394	-117.4543	1179.3409	-192.4309
558-13-4	Tetrabromomethane	331.65	724.8	1009	1925.6988	207.2291	370.8863	404.8231
75-45-6	Chlorodifluoromethane (R22)	86.47	369.28	520	904.1321	874.1686	-1176.1342	881.006
75-43-4	Dichlorofluoromethane (R21)	102.92	451.55	525	1070.5872	-98.6131	523.2526	-85.703
75-72-9	Chlorotrifluoromethane (R13)	104.46	302.05	579	1180.7265	-216.9828	745.9367	-183.851
75-71-8	Dichlorodifluoromethane (R12)	120.91	385.12	565	914.8406	994.9276	-1324.3128	961.0344
75-69-4	Trichlorofluoromethane (R11)	137.37	471.06	565	851.6332	1187.6894	-1625.7708	1135.7392
353-36-6	Ethyl fluoride (R161)	48.06	375.3	293	871.5416	-639.9577	872.5932	-320.7747
75-00-3	Ethyl chloride	64.52	460.35	323	856.3593	-570.9783	973.9418	-348.5034
74-96-4	Ethyl bromide	108.97	503.75	507	1073.91	-116.4739	607.8587	-92.9976
75-34-3	1,1-Dichloroethane	98.96	523.05	412	885.9945	-205.7961	614.0614	-155.3254
107-06-2	1,2-Dichloroethane	98.96	561.6	450	822.5207	-75.2915	548.0378	-126.648
106-93-4	1,2-Dibromoethane	187.87	650.2	718	1450.455	59.2274	351.5599	106.9717
420-46-2	1,1,1-Trifluoroethane (R143a)	84.04	345.86	431	889.8086	159.4135	-27.5628	218.1093
71-55-6	1,1,1-Trichloroethane	133.41	545.05	475	966.616	-230.035	721.5753	-197.3209
79-34-5	1,1,2,2-Tetrachloroethane	167.85	645.05	517	1072.7673	-212.8525	808.8989	-195.607
76-01-7	Pentachloroethane	202.29	646	548	2495.1281	-4923.0789	6727.3035	-2845.4099
67-72-1	Hexachloroethane	236.74	695.05	575	1430.9034	-692.736	1783.3601	-734.5438
76-12-0	1,1,2,2-Tetrachlorodifluoroethane	203.83	551.05	581	1175.4506	-180.3605	754.7753	-196.5778
76-13-1	1,1,2-trichlorotrifluoroethane	187.38	487.21	560	1218.9337	135.4996	-143.7455	397.6751
76-14-2	1,2-Dichlorotetrafluoroethane	170.92	418.85	581	1357.5613	-783.4204	1599.8675	-650.435
540-54-5	1-Chloropropane	78.54	503.15	318	731.5526	-294.7994	610.042	-179.1843
109-69-3	1-Chlorobutane	92.57	542	309	364.843	899.0805	-876.2568	472.1917
543-59-9	1-Chloropentane	106.6	568.05	303	655.9881	-103.0953	303.1006	-33.1451
79-38-9	Chlorotrifluoroethene	116.47	379.15	549	1045.3953	-51.8354	734.1349	-161.2374
75-01-4	Vinyl chloride	62.5	432.05	349	845.5168	-410.8391	753.8048	-252.5094
75-35-4	1,1-Dichloroethene	96.94	482.05	433	1069.3566	-480.9307	903.7241	-294.1212
79-01-6	Trichloroethene	131.39	571.05	513	1044.2371	-345.2637	975.1438	-317.8707
127-18-4	Tetrachloroethene	165.83	620.05	669	706.71	340.6747	313.2121	-0.4034
462-06-6	Fluorobenzene	96.1	560.05	357	714.7826	136.3923	-139.1048	267.2267
108-90-7	Chlorobenzene	112.56	632.35	366	780.6202	-22.5318	178.8073	71.8433
108-86-1	Bromobenzene	157.01	670.2	485	1089.0319	-346.8409	823.6222	-233.4489
591-50-4	Iodobenzene	204.01	721.2	581	1226.0761	-102.2072	516.6255	-13.8056
108-41-8	m-Chlorotoluene	126.59	660.75	347	768.5321	-122.6643	283.8313	52.6685
100-44-7	Benzyl chloride	126.59	686.05	352	691.0301	23.2005	325.7146	-44.8929
74-82-8	Methane	16.04	190.56	163	267.8594	129.3958	-73.607	69.9714
74-84-0	Ethane	30.07	305.32	206	339.4205	278.1378	-326.555	246.5842
74-98-6	Propane	44.1	369.82	221	373.2481	324.1771	-431.6048	327.5258
106-97-8	n-Butane	58.12	425.13	228	418.6986	246.8434	-317.6272	274.8875
109-66-0	n-Pentane	72.15	469.66	235	331.1104	681.0817	-965.3279	602.3613
110-54-3	n-Hexane	86.18	507.79	223	537.394	87.8728	-283.3888	344.5049
142-82-5	n-Heptane	100.21	541.23	225	308.4582	1071.686	-1664.6321	990.254
111-65-9	n-Octane	114.23	569.57	228	314.7545	1031.5341	-1576.774	940.0026
111-84-2	n-Nonane	128.26	594.55	234	438.9742	485.266	-813.4139	597.9116
124-18-5	n-Decane	142.29	617.7	234	309.6055	987.2944	-1482.3904	909.4231
1120-21-4	n-Undecane	156.31	639.05	237	507.1171	-85.9952	339.0114	-73.5121
112-40-3	n-Dodecane	170.34	658.1	238	444.404	138.4886	69.0787	37.5477
629-50-5	n-Tridecane	184.37	675.05	238	448.8395	22.455	270.4767	-35.9422
629-59-4	n-Tetradecane	198.39	693.05	239	463.1763	-2.7765	279.4555	-36.6553
629-62-9	n-Pentadecane	212.42	708.05	239	455.5302	11.7043	271.6956	-32.9927
544-76-3	n-Hexadecane	226.45	723.05	240	452.8468	-20.7559	361.8764	-90.6718
629-78-7	n-Heptadecane	240.47	736.05	241	447.6449	26.3796	258.9645	-26.2511
593-45-3	n-Octadecane	254.5	747.05	240	463.0348	-70.7347	461.9766	-157.7468
629-92-5	n-Nonadecane	268.53	758.05	240	444.3944	16.727	294.2676	-43.2837
112-95-8	n-Eicosane	282.56	769.63	234	432.7631	133.9129	81.0102	76.969
75-28-5	Isobutane	58.12	407.81	226	383.6237	363.6942	-483.9167	353.6428
78-78-4	2-Methyl butane	72.15	460.35	237	361.5111	560.1453	-819.7357	546.2874
463-82-1	2,2-Dimethyl propane	72.15	433.74	238	399.8287	153.5783	29.4362	2.5978
107-83-5	2-Methyl pentane	86.18	497.7	236	341.4133	769.6707	-1184.619	747.5074
96-14-0	3-Methyl pentane	86.18	504.65	234	573.2071	-229.0097	414.051	-118.6548
75-83-2	2,2-Dimethyl butane	86.18	489	241	486.0676	-45.2379	223.2189	-32.0169
79-29-8	2,3-Dimethyl butane	86.18	500	240	254.1215	1135.4205	-1652.2629	932.197
74-85-1	Ethylene	28.05	282.35	214	364.3614	211.7762	-203.5475	188.4411
115-07-1	Propylene	42.08	365.57	223	369.7127	440.5724	-608.9598	438.0705
106-98-9	1-Butene	56.11	419.29	238	375.1257	531.6721	-821.5718	584.8143
109-67-1	1-Pentene	70.14	464.75	235	498.6016	-53.1963	229.89	-12.1005
592-41-6	1-Hexene	84.16	504.05	238	510.1814	-116.4131	367.6914	-90.9801
592-76-7	1-Heptene	98.19	537.4	244	532.8059	-176.2433	442.2244	-133.5518
111-66-0	1-Octene	112.22	567.05	240	657.1207	-575.9768	946.0894	-359.8622
463-49-0	Propadiene	40.06	393.15	243	502.0141	-158.5711	487.7855	-166.431
590-19-2	1,2-Butadiene	54.09	452	246	470.2546	-43.2316	338.1675	-71.5782
106-99-0	1,3-Butadiene	54.09	425.15	245	516.9714	-153.0729	432.6257	-146.9736
591-95-7	1,2-Pentadiene	68.12	500.05	247	526.0862	-102.9607	338.7486	-76.0606
504-60-9	trans-1,3-Pentadiene	68.12	500.05	247	459.5187	-71.6617	434.87	-156.7892
591-93-5	1,4-Pentadiene	68.12	479	225	372.0249	140.8959	213.7531	36.0847
591-96-8	2,3-Pentadiene	68.12	497	231	601.3221	-231.5055	468.4758	-132.5235
74-86-2	Acetylene	26.04	308.35	230	522.9178	-240.7307	475.3756	-144.5991
74-99-7	Propyne	40.06	402.4	244	534.1335	-75.2467	252.8497	-31.8209
503-17-3	2-Butyne	54.09	473.2	245	586.6064	-155.7016	326.9444	-53.3841
107-00-6	1-Butyne	54.09	440	260	503.9674	-90.2536	337.8005	-80.7264
75-19-4	Cyclopropane	42.08	397.95	259	509.4024	-123.245	381.1163	-107.6052
287-23-0	Cyclobutane	56.11	459.9	267	710.5761	-476.8125	625.0484	-214.8659
287-92-3	Cyclopentane	70.14	511.7	270	450.015	692.7447	-1131.7809	724.463
96-37-7	Methyl cyclopentane	84.16	532.75	264	586.1851	-206.8126	465.6426	-133.2315
1640-89-7	Ethyl cyclopentane	98.19	569.5	262	591.7101	-161.9096	367.1965	-85.7409
2040-96-2	Propyl cyclopentane	112.22	596	262	599.4701	-246.4926	524.2674	-166.6909
2040-95-1	Butyl cyclopentane	126.24	621	261	549.8797	-94.1561	328.1468	-64.8716
3741-00-2	Pentyl cyclopentane	140.27	656.2	257	21.3865	1705.0458	-1919.0378	944.3151
4457-00-5	hexyl cyclopentane	154.3	660.1	259	496.4226	118.3606	-44.5909	170.4166
110-82-7	Cyclohexane	84.16	553.6	273	373.9221	848.7461	-1261.1653	815.8631
108-87-2	Methyl cyclohexane	98.19	572.15	267	541.8145	-87.5463	328.4257	-63.2825
1678-91-7	Ethyl cyclohexane	112.22	609.15	261	577.6869	-104.1979	295.7576	-43.8897
1678-92-8	Propyl cyclohexane	126.24	639.2	265	496.0892	31.4274	199.9535	-0.0783
1678-93-9	Butyl cyclohexane	140.27	667	263	506.3817	-49.6664	336.9189	-68.8765
4292-92-6	Pentyl cyclohexane	154.3	667.85	264	279.5792	762.84	-746.6601	440.9901
4292-75-5	Hexyl cyclohexane	168.32	693.6	249	593.6577	-303.4227	620.1121	-164.785
142-29-0	Cyclopentene	68.12	507	278	725.9817	-741.6349	1302.8902	-550.8221
110-83-8	Cyclohexene	82.15	560.45	282	599.5856	-158.4142	433.0116	-115.8632
71-43-2	Benzene	78.11	562.01	306	502.4341	531.598	-663.9865	469.5949
108-88-3	Toluene	92.14	591.75	292	439.5835	839.1558	-1234.8445	797.8741
100-41-4	Ethyl benzene	106.17	617.05	283	570.2499	385.5562	-683.9919	559.634
103-65-1	Propyl benzene	120.19	638.35	274	374.7765	1406.9407	-2323.096	1383.0818
104-51-8	Butyl benzene	134.22	660.5	270	567.3503	-44.2239	325.9459	-48.9536
538-68-1	Pentyl benzene	148.25	679.9	270	625.0808	-192.5173	472.6577	-129.2587
1077-16-3	Hexyl benzene	162.28	698	274	560.4851	-87.454	385.4265	-85.545
95-47-6	o-Xylene	106.17	630.25	287	676.6371	-299.1691	624.5571	-201.7643
108-38-3	m-Xylene	106.17	617.05	283	670.0403	-300.7884	613.6168	-189.3359
106-42-3	p-Xylene	106.17	616.25	281	660.6795	-279.7896	602.8083	-192.6478
526-73-8	1,2,3-Trimethyl benzene	120.19	664.5	290	754.5071	-413.8427	666.3695	-223.963
95-63-6	1,2,4-Trimethyl benzene	120.19	649.05	280	578.6385	85.6763	66.0157	76.6911
108-67-8	1,3,5-Trimethyl benzene	120.19	637.3	278	640.957	-176.332	437.2828	-109.0875
488-23-3	1,2,3,4-Tetramethyl benzene	134.22	693	283	673.8483	-377.2864	846.4842	-333.8113
527-53-7	1,2,3,5-Tetramethyl benzene	134.22	679	279	608.7104	-85.1256	355.8065	-66.408
95-93-2	1,2,4,5-Tetramethyl benzene	134.22	676	279	716.4977	-373.259	668.4023	-225.6822
700-12-9	Pentamethyl benzene	148.25	719.2	276	613.3655	-145.7886	514.0054	-142.3577
87-85-4	Hexamethyl benzene	162.28	758	274	856.0941	-710.6638	1125.6113	-483.272
100-42-5	Styrene	104.15	636.05	296	596.1525	-108.0248	457.607	-104.3199
98-82-8	Isopropyl benzene	120.19	631.05	277	612.6486	-67.4355	255.7468	2.0865
92-52-4	Biphenyl	154.21	789	310	-144.5769	3294.2798	-4370.6493	2181.5445
101-81-5	Diphenyl methane	168.24	760	299	721.9528	-259.8678	651.0631	-218.7731
519-73-3	Triphenyl methane	244.34	865	325	658.1058	-42.5371	332.2151	-26.7722
630-76-2	Tetraphenyl methane	320.43	983	332	858.8627	-205.4402	780.2431	-214.3411
91-20-3	Naphthalene	128.17	748.45	315	827.8845	-650.938	1177.1336	-454.2853
90-12-0	1-Methylnaphthalene	142.2	772	306	731.0545	-216.5763	499.7559	-106.6647
91-57-6	2-Methylnaphthalene	142.2	761	306	812.2186	-440.4793	644.4363	-123.2879
1127-76-0	1-Ethylnaphthalene	156.23	776	300	768.0808	-208.032	385.7996	-59.6192
939-27-5	2-Ethylnaphthalene	156.23	771	300	762.4014	-281.5464	517.9806	-131.1086
67-56-1	Methanol	32.04	513.38	282	164.7611	2257.7678	-3545.6923	1929.7376
64-17-5	Ethanol	46.07	513.9	276	748.617	-412.3622	776.4394	-436.6757
71-23-8	1-Propanol	60.1	536.75	274	816.2709	-549.2099	696.9841	-232.082
71-36-3	1-Butanol	74.12	563.05	270	777.2534	-446.842	578.8813	-172.9538
71-41-0	1-Pentanol	88.15	586.15	270	751.4379	-445.8311	657.1566	-231.1445
111-27-3	1-Hexanol	102.18	611.35	268	779.5145	-533.7565	743.6153	-264.3245
111-70-6	1-Heptanol	116.2	632.6	267	637.2821	-224.8073	464.7011	-131.7231
111-87-5	1-Octanol	130.23	652.55	266	635.0506	-325.7666	688.5827	-254.0193
67-63-0	Isopropanol	60.1	508.25	273	865.9165	-744.0943	975.9052	-381.1278
78-83-1	2-Methyl-1-propanol	74.12	547.75	272	934.7519	-1180.1957	1728.8821	-777.3781
123-51-3	3-Methyl-1-butanol	88.15	577.25	270	879.1766	-733.0487	895.9805	-330.6835
107-21-1	Ethylene glycol	62.07	719.15	325	1305.5931	-1374.2561	1691.0501	-665.0358
504-63-2	1,3-Propylene glycol	76.09	724.05	351	1122.4836	-875.9683	844.968	-234.3532
56-81-5	Glycerol	92.09	850.05	349	1341.5932	-1168.205	1429.7634	-527.771
108-93-0	Cyclohexanol	100.16	650.05	311	691.7418	-231.6456	571.5227	-175.7843
100-51-6	Benzyl alcohol	108.14	720.15	323	850.4338	-421.4897	717.951	-227.4262
95-48-7	o-Cresol	108.14	697.55	383	632.5598	-17.3349	263.1021	0.0173
108-39-4	m-Cresol	108.14	705.85	347	789.9775	-285.5601	515.7326	-142.104
106-44-5	p-Cresol	108.14	704.65	391	622.7984	36.9513	126.955	56.8974
108-95-2	Phenol	94.11	694.25	411	572.3325	39.7056	345.405	-72.2556
64-18-6	Formic acid	46.02	588.05	368	1181.5822	-735.7666	1040.1334	-334.6213
64-19-7	Acetic acid	60.05	591.95	334	925.3897	-312.7993	340.0633	29.7204
79-09-4	Propionic acid	74.08	600.85	318	797.1701	-247.0129	471.4726	-96.1474
107-92-6	Butyric acid	88.11	615.75	302	863.4643	-339.3183	323.8065	40.4813
109-52-4	Valeric acid	102.13	634.05	304	783.8282	-574.7117	1043.4452	-417.5824
142-62-1	Caproic acid	116.16	660.2	281	864.3467	-628.7969	947.6116	-358.8242
108-24-7	Acetic anhydride	102.09	606.05	352	682.0673	-119.7326	679.5899	-205.878
123-62-6	Propionic anhydride	130.14	623	329	634.5554	-111.1548	605.3432	-170.787
79-11-8	Chloroacetic acid	94.5	686.05	428	997.261	-242.9622	764.1551	-197.308
79-43-6	Dichloroacetic acid	128.94	686.05	487	835.2438	125.7524	573.892	-58.3985
76-03-9	Trichloroacetic acid	163.39	688.05	529	1051.883	-25.9784	525.2987	-32.4824
463-51-4	Ketene	42.04	370.05	292	622.184	-165.9732	442.623	-119.577
67-64-1	Acetone	58.08	508.1	274	547.382	208.742	-203.7599	253.9936
78-93-3	Methyl ethyl ketone	72.11	535.55	270	560.7857	-90.7312	454.3929	-120.5211
96-22-0	Diethyl ketone	86.13	561	256	631.4702	-197.405	514.5685	-146.1064
123-19-3	Dipropyl ketone	114.19	602	263	550.0551	-47.0791	332.7349	-55.1781
98-86-2	Acetophenone	120.15	709.5	311	729.4145	-204.6406	556.0093	-145.9565
119-61-9	Benzophenone	182.22	830.05	321	782.3121	-159.9513	358.9665	-0.1287
115-10-6	Dimethyl ether	46.07	400.3	277	493.6395	92.1379	137.7856	5.8434
60-29-7	Diethyl ether	74.12	466.63	264	521.2805	257.7528	-489.2726	486.7458
111-43-3	Dipropyl ether	102.18	530.6	268	560.6008	-66.0979	231.3743	-25.4168
557-17-5	Methyl propyl ether	74.12	476.3	269	519.3865	-39.7274	321.5971	-58.9568
628-32-0	Ethyl propyl ether	88.15	500.2	260	556.9149	-128.7853	384.7507	-88.7772
75-21-8	Ethylene oxide	44.05	469.15	314	757.9994	-286.5638	583.1649	-177.0206
110-00-9	Furane	68.08	490.15	312	874.7486	-463.4642	800.9808	-268.1611
123-91-1	1,4-Dioxane	88.11	587.05	370	678.8964	-120.4207	544.3169	-167.1524
50-00-0	Formaldehyde	30.03	408.05	261	625.7638	5.709	245.3425	43.9601
75-07-0	Acetaldehyde	44.05	466.05	286	588.842	-39.6103	285.7658	-26.6228
123-63-7	Paraldehyde	132.16	579.05	362	560.5579	264.0982	-148.6559	262.2179
98-01-1	Furfural	96.08	670.2	381	747.7699	-99.6602	513.8809	-116.7313
100-52-7	Benzaldehyde	106.12	695.05	328	696.5787	-30.8195	301.9063	-22.2959
90-02-8	Salicylaldehyde	122.12	680	357	1156.0689	-926.0141	1233.5363	-464.4392
107-31-3	Methyl formate	60.05	487.25	349	775.1812	-197.0272	529.3064	-138.9492
109-94-4	Ethyl formate	74.08	508.45	324	765.9448	-360.7128	737.2408	-242.8289
110-74-7	Propyl formate	88.11	538	309	695.5638	-166.9122	452.1853	-110.8676
79-20-9	Methyl acetate	74.08	506.55	325	735.8282	-133.1048	374.1594	-55.0194
141-78-6	Ethyl acetate	88.11	523.2	308	660.3752	8.8513	207.168	1.5101
109-60-4	Propyl acetate	102.13	549.75	296	682.4676	-162.2018	432.6427	-97.3592
554-12-1	Methyl propionate	88.11	530.6	312	708.5713	-154.0179	420.6243	-90.1472
105-37-3	Ethyl propionate	102.13	546.05	296	693.9231	-209.9952	516.2012	-141.1864
106-36-5	Propyl propionate	116.16	568.6	299	632.5301	-108.1101	391.7953	-80.5204
623-42-7	Methyl butyrate	102.13	554.5	300	752.8912	-322.2388	595.9627	-181.6941
105-54-4	Ethyl butyrate	116.16	571	288	676.2305	-183.828	454.1518	-110.2246
93-58-3	Methyl benzoate	136.15	693.05	312	884.1769	-486.5499	965.3906	-361.7121
93-89-0	Ethyl benzoate	150.18	698	307	733.0282	-164.2079	529.3259	-121.7958
119-36-8	Methyl salicylate	152.15	709	371	905.2883	-355.4925	695.0348	-203.3611
74-89-5	Methyl amine	31.06	430.05	202	803.3522	-545.1488	695.6625	-211.9019
75-04-7	Ethyl amine	45.09	456.15	218	633.521	-127.7781	267.0804	-30.4806
107-10-8	Propyl amine	59.11	496.95	227	743.8388	-508.991	757.8672	-271.2439
109-73-9	n-butyl amine	73.14	531.95	236	536.8539	99.8023	86.4297	-0.0872
124-40-3	Dimethyl amine	45.09	437.25	250	669.2053	-452.4323	686.3039	-257.5126
75-50-3	Trimethyl amine	59.11	433.25	233	595.8605	-277.4351	522.6859	-170.4614
109-89-7	Diethyl amine	73.14	496.65	243	587.2056	-154.6153	354.6121	-84.9548
121-44-8	Triethyl amine	101.19	535.15	260	527.407	-73.2089	292.3398	-56.6226
110-89-4	Piperidine	85.15	594	277	715.9263	-375.9305	715.668	-252.9803
110-86-1	Pyridine	79.1	620	311	690.1939	-203.6045	639.6026	-197.2534
62-53-3	Aniline	93.13	699.05	345	658.6221	-14.6944	242.093	0.7157