CAS	Chemical	MW	Tc	rhoc	A	B	C	D
100-61-8	N-Methyl aniline	107.16	701.5	287	864.2138	-497.9953	785.4701	-259.5471
121-69-7	N,N-dimethyl aniline	121.18	687.2	261	947.8512	-688.2637	967.8765	-348.1476
91-66-7	N,N-diethyl aniline	149.24	702	268	741.1539	-219.0978	404.9792	-62.8648
100-63-0	Phenylhydrazine	108.14	761	259	1059.0386	-909.0434	1516.7029	-633.0667
122-39-4	Diphenyl amine	169.23	817	314	741.2921	-188.1027	546.9112	-136.8931
75-05-8	Acetonitrile	41.05	545.55	237	565.3431	-36.8917	312.7935	-27.5047
107-12-0	Propionitrile	55.08	564.4	241	593.9656	-143.8921	437.8666	-106.461
109-74-0	Butyronitrile	69.11	582.3	249	574.0426	-109.8505	395.233	-87.6033
100-47-0	Benzonitrile	103.12	699.35	329	609.1142	-3.9828	337.9801	-43.7599
75-12-7	Formamide	45.04	771	276	965.0375	-531.0847	957.2988	-315.4745
75-52-5	Nitromethane	61.04	588.2	353	675.908	381.0708	-203.4493	278.9247
98-95-3	Nitrobenzene	123.11	719.05	353	902.639	-421.4692	914.1481	-291.7604
88-72-2	o-Nitrotoluene	137.14	720.05	311	1144.0002	-1639.6486	2962.153	-1405.4992
99-08-1	m-Nitrotoluene	137.14	734.05	311	921.6086	-241.0428	446.467	-40.2498
99-99-0	p-Nitrotoluene	137.14	743.05	311	878.9128	-151.3942	353.3063	-0.4124